
     Program PWSCF v.6.7MaX starts on 27Apr2024 at 12:12:55 

     This program is part of the open-source Quantum ESPRESSO suite
     for quantum simulation of materials; please cite
         "P. Giannozzi et al., J. Phys.:Condens. Matter 21 395502 (2009);
         "P. Giannozzi et al., J. Phys.:Condens. Matter 29 465901 (2017);
          URL http://www.quantum-espresso.org", 
     in publications or presentations arising from this work. More details at
     http://www.quantum-espresso.org/quote

     Parallel version (MPI), running on     8 processors

     MPI processes distributed on     1 nodes
     R & G space division:  proc/nbgrp/npool/nimage =       8
     Reading input from pw.scf.bi2se3_01.in

     Current dimensions of program PWSCF are:
     Max number of different atomic species (ntypx) = 10
     Max number of k-points (npk) =  40000
     Max angular momentum in pseudopotentials (lmaxx) =  3
     Message from routine read_pp_mesh:
     mesh size missing, using the one in header
     Message from routine read_pp_mesh:
     mesh size missing, using the one in header

     Subspace diagonalization in iterative solution of the eigenvalue problem:
     one sub-group per band group will be used
     scalapack distributed-memory algorithm (size of sub-group:  2*  2 procs)

     Found symmetry operation: I + ( -0.3333  0.3333  0.3333)
     This is a supercell, fractional translations are disabled

     Parallelization info
     --------------------
     sticks:   dense  smooth     PW     G-vecs:    dense   smooth      PW
     Min          84      84     24                12168    12168    1888
     Max          85      85     25                12195    12195    1909
     Sum         673     673    199                97417    97417   15219



     bravais-lattice index     =            4
     lattice parameter (alat)  =       7.8197  a.u.
     unit-cell volume          =    2850.0212 (a.u.)^3
     number of atoms/cell      =           15
     number of atomic types    =            2
     number of electrons       =       234.00
     number of Kohn-Sham states=          140
     kinetic-energy cutoff     =      40.0000  Ry
     charge density cutoff     =     160.0000  Ry
     scf convergence threshold =      3.0E-03
     mixing beta               =       0.2000
     number of iterations used =            8  plain     mixing
     Exchange-correlation= PBE
                           (   1   4   3   4   0   0   0)

     celldm(1)=   7.819686  celldm(2)=   0.000000  celldm(3)=   6.882552
     celldm(4)=   0.000000  celldm(5)=   0.000000  celldm(6)=   0.000000

     crystal axes: (cart. coord. in units of alat)
               a(1) = (   1.000000   0.000000   0.000000 )  
               a(2) = (  -0.500000   0.866025   0.000000 )  
               a(3) = (   0.000000   0.000000   6.882552 )  

     reciprocal axes: (cart. coord. in units 2 pi/alat)
               b(1) = (  1.000000  0.577350 -0.000000 )  
               b(2) = (  0.000000  1.154701  0.000000 )  
               b(3) = (  0.000000 -0.000000  0.145295 )  


     PseudoPot. # 1 for Bi read from file:
     ../PSEUDO/Bi.upf
     MD5 check sum: a545f56da3ca017249ac0f4a9c12ec4f
     Pseudo is Norm-conserving + core correction, Zval = 15.0
     Generated using ONCVPSP code by D. R. Hamann
     Using radial grid of 1484 points,  8 beta functions with: 
                l(1) =   0
                l(2) =   0
                l(3) =   0
                l(4) =   1
                l(5) =   1
                l(6) =   2
                l(7) =   2
                l(8) =   3

     PseudoPot. # 2 for Se read from file:
     ../PSEUDO/Se.upf
     MD5 check sum: 3cc46b3642295b3f4fdae63b742ce36d
     Pseudo is Norm-conserving + core correction, Zval = 16.0
     Generated using ONCVPSP code by D. R. Hamann
     Using radial grid of 1214 points,  6 beta functions with: 
                l(1) =   0
                l(2) =   0
                l(3) =   1
                l(4) =   1
                l(5) =   2
                l(6) =   2

     atomic species   valence    mass     pseudopotential
        Bi            15.00   208.98040     Bi( 1.00)
        Se            16.00    78.96000     Se( 1.00)

     12 Sym. Ops., with inversion, found


                                    s                        frac. trans.

      isym =  1     identity                                     

 cryst.   s( 1) = (     1          0          0      )
                  (     0          1          0      )
                  (     0          0          1      )

 cart.    s( 1) = (  1.0000000  0.0000000  0.0000000 )
                  (  0.0000000  1.0000000  0.0000000 )
                  (  0.0000000  0.0000000  1.0000000 )


      isym =  2     180 deg rotation - cart. axis [1,0,0]        

 cryst.   s( 2) = (     1          0          0      )
                  (    -1         -1          0      )
                  (     0          0         -1      )

 cart.    s( 2) = (  1.0000000  0.0000000  0.0000000 )
                  (  0.0000000 -1.0000000  0.0000000 )
                  (  0.0000000  0.0000000 -1.0000000 )


      isym =  3     120 deg rotation - cryst. axis [0,0,1]       

 cryst.   s( 3) = (     0          1          0      )
                  (    -1         -1          0      )
                  (     0          0          1      )

 cart.    s( 3) = ( -0.5000000 -0.8660254  0.0000000 )
                  (  0.8660254 -0.5000000  0.0000000 )
                  (  0.0000000  0.0000000  1.0000000 )


      isym =  4     120 deg rotation - cryst. axis [0,0,-1]      

 cryst.   s( 4) = (    -1         -1          0      )
                  (     1          0          0      )
                  (     0          0          1      )

 cart.    s( 4) = ( -0.5000000  0.8660254  0.0000000 )
                  ( -0.8660254 -0.5000000  0.0000000 )
                  (  0.0000000  0.0000000  1.0000000 )


      isym =  5     180 deg rotation - cryst. axis [0,1,0]       

 cryst.   s( 5) = (    -1         -1          0      )
                  (     0          1          0      )
                  (     0          0         -1      )

 cart.    s( 5) = ( -0.5000000 -0.8660254  0.0000000 )
                  ( -0.8660254  0.5000000  0.0000000 )
                  (  0.0000000  0.0000000 -1.0000000 )


      isym =  6     180 deg rotation - cryst. axis [1,1,0]       

 cryst.   s( 6) = (     0          1          0      )
                  (     1          0          0      )
                  (     0          0         -1      )

 cart.    s( 6) = ( -0.5000000  0.8660254  0.0000000 )
                  (  0.8660254  0.5000000  0.0000000 )
                  (  0.0000000  0.0000000 -1.0000000 )


      isym =  7     inversion                                    

 cryst.   s( 7) = (    -1          0          0      )
                  (     0         -1          0      )
                  (     0          0         -1      )

 cart.    s( 7) = ( -1.0000000  0.0000000  0.0000000 )
                  (  0.0000000 -1.0000000  0.0000000 )
                  (  0.0000000  0.0000000 -1.0000000 )


      isym =  8     inv. 180 deg rotation - cart. axis [1,0,0]   

 cryst.   s( 8) = (    -1          0          0      )
                  (     1          1          0      )
                  (     0          0          1      )

 cart.    s( 8) = ( -1.0000000  0.0000000  0.0000000 )
                  (  0.0000000  1.0000000  0.0000000 )
                  (  0.0000000  0.0000000  1.0000000 )


      isym =  9     inv. 120 deg rotation - cryst. axis [0,0,1]  

 cryst.   s( 9) = (     0         -1          0      )
                  (     1          1          0      )
                  (     0          0         -1      )

 cart.    s( 9) = (  0.5000000  0.8660254  0.0000000 )
                  ( -0.8660254  0.5000000  0.0000000 )
                  (  0.0000000  0.0000000 -1.0000000 )


      isym = 10     inv. 120 deg rotation - cryst. axis [0,0,-1] 

 cryst.   s(10) = (     1          1          0      )
                  (    -1          0          0      )
                  (     0          0         -1      )

 cart.    s(10) = (  0.5000000 -0.8660254  0.0000000 )
                  (  0.8660254  0.5000000  0.0000000 )
                  (  0.0000000  0.0000000 -1.0000000 )


      isym = 11     inv. 180 deg rotation - cryst. axis [0,1,0]  

 cryst.   s(11) = (     1          1          0      )
                  (     0         -1          0      )
                  (     0          0          1      )

 cart.    s(11) = (  0.5000000  0.8660254  0.0000000 )
                  (  0.8660254 -0.5000000  0.0000000 )
                  (  0.0000000  0.0000000  1.0000000 )


      isym = 12     inv. 180 deg rotation - cryst. axis [1,1,0]  

 cryst.   s(12) = (     0         -1          0      )
                  (    -1          0          0      )
                  (     0          0          1      )

 cart.    s(12) = (  0.5000000 -0.8660254  0.0000000 )
                  ( -0.8660254 -0.5000000  0.0000000 )
                  (  0.0000000  0.0000000  1.0000000 )


     point group D_3d (-3m) 
     there are  6 classes
     the character table:

       E     2C3   3C2'  i     2S6   3s_d 
A_1g   1.00  1.00  1.00  1.00  1.00  1.00
A_2g   1.00  1.00 -1.00  1.00  1.00 -1.00
E_g    2.00 -1.00  0.00  2.00 -1.00  0.00
A_1u   1.00  1.00  1.00 -1.00 -1.00 -1.00
A_2u   1.00  1.00 -1.00 -1.00 -1.00  1.00
E_u    2.00 -1.00  0.00 -2.00  1.00  0.00

     the symmetry operations in each class and the name of the first element:

     E        1
          identity                                               
     2C3      3    4
          120 deg rotation - cryst. axis [0,0,1]                 
     3C2'     2    5    6
          180 deg rotation - cart. axis [1,0,0]                  
     i        7
          inversion                                              
     2S6      9   10
          inv. 120 deg rotation - cryst. axis [0,0,1]            
     3s_d     8   11   12
          inv. 180 deg rotation - cart. axis [1,0,0]             

   Cartesian axes

     site n.     atom                  positions (alat units)
         1           Bi  tau(   1) = (   0.0000000   0.0000000   2.7461382  )
         2           Bi  tau(   2) = (   0.0000000   0.0000000   4.1364138  )
         3           Bi  tau(   3) = (   0.5000000   0.2886751   5.0403220  )
         4           Bi  tau(   4) = (   0.5000000   0.2886751   6.4305976  )
         5           Bi  tau(   5) = (  -0.0000000   0.5773503   0.4519542  )
         6           Bi  tau(   6) = (  -0.0000000   0.5773503   1.8422297  )
         7           Se  tau(   7) = (   0.0000000   0.0000000   0.0000000  )
         8           Se  tau(   8) = (   0.5000000   0.2886751   2.2941841  )
         9           Se  tau(   9) = (  -0.0000000   0.5773503   4.5883681  )
        10           Se  tau(  10) = (   0.0000000   0.0000000   1.4178057  )
        11           Se  tau(  11) = (   0.0000000   0.0000000   5.4647465  )
        12           Se  tau(  12) = (   0.5000000   0.2886751   3.7119898  )
        13           Se  tau(  13) = (   0.5000000   0.2886751   0.8763782  )
        14           Se  tau(  14) = (  -0.0000000   0.5773503   6.0061736  )
        15           Se  tau(  15) = (  -0.0000000   0.5773503   3.1705622  )

   Crystallographic axes

     site n.     atom                  positions (cryst. coord.)
         1           Bi  tau(   1) = (  0.0000000  0.0000000  0.3990000  )
         2           Bi  tau(   2) = (  0.0000000  0.0000000  0.6010000  )
         3           Bi  tau(   3) = (  0.6666667  0.3333333  0.7323333  )
         4           Bi  tau(   4) = (  0.6666667  0.3333333  0.9343333  )
         5           Bi  tau(   5) = (  0.3333333  0.6666667  0.0656667  )
         6           Bi  tau(   6) = (  0.3333333  0.6666667  0.2676667  )
         7           Se  tau(   7) = (  0.0000000  0.0000000  0.0000000  )
         8           Se  tau(   8) = (  0.6666667  0.3333333  0.3333333  )
         9           Se  tau(   9) = (  0.3333333  0.6666667  0.6666667  )
        10           Se  tau(  10) = (  0.0000000  0.0000000  0.2060000  )
        11           Se  tau(  11) = (  0.0000000  0.0000000  0.7940000  )
        12           Se  tau(  12) = (  0.6666667  0.3333333  0.5393333  )
        13           Se  tau(  13) = (  0.6666667  0.3333333  0.1273333  )
        14           Se  tau(  14) = (  0.3333333  0.6666667  0.8726667  )
        15           Se  tau(  15) = (  0.3333333  0.6666667  0.4606667  )

     number of k points=     8  Marzari-Vanderbilt smearing, width (Ry)=  0.0073
                       cart. coord. in units 2pi/alat
        k(    1) = (   0.0000000   0.0000000   0.0000000), wk =   0.0625000
        k(    2) = (   0.0000000   0.0000000  -0.0726475), wk =   0.0625000
        k(    3) = (   0.0000000   0.2886751   0.0000000), wk =   0.3750000
        k(    4) = (   0.0000000   0.2886751  -0.0726475), wk =   0.3750000
        k(    5) = (   0.0000000  -0.5773503   0.0000000), wk =   0.1875000
        k(    6) = (   0.0000000  -0.5773503  -0.0726475), wk =   0.1875000
        k(    7) = (   0.2500000   0.4330127   0.0000000), wk =   0.3750000
        k(    8) = (   0.2500000   0.4330127  -0.0726475), wk =   0.3750000

                       cryst. coord.
        k(    1) = (   0.0000000   0.0000000   0.0000000), wk =   0.0625000
        k(    2) = (   0.0000000   0.0000000  -0.5000000), wk =   0.0625000
        k(    3) = (   0.0000000   0.2500000   0.0000000), wk =   0.3750000
        k(    4) = (   0.0000000   0.2500000  -0.5000000), wk =   0.3750000
        k(    5) = (   0.0000000  -0.5000000   0.0000000), wk =   0.1875000
        k(    6) = (   0.0000000  -0.5000000  -0.5000000), wk =   0.1875000
        k(    7) = (   0.2500000   0.2500000   0.0000000), wk =   0.3750000
        k(    8) = (   0.2500000   0.2500000  -0.5000000), wk =   0.3750000

     Dense  grid:    97417 G-vectors     FFT dimensions: (  32,  32, 225)

     Dynamical RAM for                 wfc:       3.25 MB

     Dynamical RAM for     wfc (w. buffer):      29.26 MB

     Dynamical RAM for           str. fact:       0.37 MB

     Dynamical RAM for           local pot:       0.00 MB

     Dynamical RAM for          nlocal pot:       7.39 MB

     Dynamical RAM for                qrad:       4.88 MB

     Dynamical RAM for          rho,v,vnew:       1.24 MB

     Dynamical RAM for               rhoin:       0.41 MB

     Dynamical RAM for            rho*nmix:       2.97 MB

     Dynamical RAM for           G-vectors:       0.79 MB

     Dynamical RAM for          h,s,v(r/c):       0.90 MB

     Dynamical RAM for          <psi|beta>:       0.68 MB

     Dynamical RAM for                 psi:       6.50 MB

     Dynamical RAM for                hpsi:       6.50 MB

     Dynamical RAM for      wfcinit/wfcrot:       6.95 MB

     Estimated static dynamical RAM per process >      49.00 MB

     Estimated max dynamical RAM per process >      63.58 MB

     Estimated total dynamical RAM >     508.63 MB

     Initial potential from superposition of free atoms

     starting charge  233.99427, renormalised to  234.00000

     negative rho (up, down):  2.760E-03 0.000E+00
     Starting wfcs are  135 randomized atomic wfcs +    5 random wfcs

     total cpu time spent up to now is        6.4 secs

     Self-consistent Calculation

     iteration #  1     ecut=    40.00 Ry     beta= 0.20
     Davidson diagonalization with overlap
     ethr =  1.00E-02,  avg # of iterations =  9.0

     negative rho (up, down):  1.935E-03 0.000E+00

     total cpu time spent up to now is       59.1 secs

     total energy              =   -3129.08759855 Ry
     estimated scf accuracy    <       6.90726957 Ry

     iteration #  2     ecut=    40.00 Ry     beta= 0.20
     Davidson diagonalization with overlap
     ethr =  2.95E-03,  avg # of iterations =  1.2

     negative rho (up, down):  1.315E-03 0.000E+00

     total cpu time spent up to now is      105.6 secs

     total energy              =   -3127.91351674 Ry
     estimated scf accuracy    <       3.85381967 Ry

     iteration #  3     ecut=    40.00 Ry     beta= 0.20
     Davidson diagonalization with overlap
     ethr =  1.65E-03,  avg # of iterations =  1.2

     negative rho (up, down):  2.375E-04 0.000E+00

     total cpu time spent up to now is      149.7 secs

     total energy              =   -3126.99870341 Ry
     estimated scf accuracy    <       1.92998893 Ry

     iteration #  4     ecut=    40.00 Ry     beta= 0.20
     Davidson diagonalization with overlap
     ethr =  8.25E-04,  avg # of iterations =  2.6

     negative rho (up, down):  7.466E-05 0.000E+00

     total cpu time spent up to now is      199.9 secs

     total energy              =   -3127.18216472 Ry
     estimated scf accuracy    <       0.04027430 Ry

     iteration #  5     ecut=    40.00 Ry     beta= 0.20
     Davidson diagonalization with overlap
     ethr =  1.72E-05,  avg # of iterations =  8.8

     negative rho (up, down):  3.133E-05 0.000E+00

     total cpu time spent up to now is      241.3 secs

     total energy              =   -3127.18303551 Ry
     estimated scf accuracy    <       0.01544919 Ry

     iteration #  6     ecut=    40.00 Ry     beta= 0.20
     Davidson diagonalization with overlap
     ethr =  6.60E-06,  avg # of iterations = 12.2

     total cpu time spent up to now is      281.3 secs

     total energy              =   -3127.18209405 Ry
     estimated scf accuracy    <       0.03277516 Ry

     iteration #  7     ecut=    40.00 Ry     beta= 0.20
     Davidson diagonalization with overlap
     ethr =  6.60E-06,  avg # of iterations = 10.4

     total cpu time spent up to now is      338.7 secs

     End of self-consistent calculation

          k = 0.0000 0.0000 0.0000 ( 12115 PWs)   bands (ev):

   -38.7466 -38.7466 -38.7456 -38.7456 -38.6637 -38.6637 -38.5499 -38.5338
   -38.5338 -38.4944 -38.4944 -38.4873 -38.4873 -38.4168 -38.4090 -38.2564
   -38.2564 -38.1519 -38.1519 -38.1506 -38.1506 -38.0855 -38.0855 -38.0853
   -38.0853 -38.0675 -38.0675 -38.0224 -38.0224 -38.0153 -37.9868 -37.9749
   -37.9721 -37.9721 -37.9623 -37.9623 -37.9199 -37.8374 -37.8374 -37.7203
   -37.7203 -37.7114 -37.7061 -37.7061 -37.6951 -13.0829 -13.0829 -13.0825
   -13.0825 -13.0746 -13.0746 -13.0722 -13.0722 -13.0689 -13.0689 -13.0687
   -13.0668 -13.0668 -13.0658 -13.0620 -13.0620 -13.0615 -13.0615 -13.0608
   -13.0570 -13.0570 -13.0531 -13.0460 -13.0446 -13.0372 -13.0372 -13.0365
   -13.0365 -13.0287 -13.0287  -6.2462  -6.2009  -6.1971  -5.5082  -5.5075
    -5.3716  -3.8384  -3.5074  -3.5042  -2.4660  -2.4606  -1.7629  -1.6410
    -1.1728  -1.1671   6.7011   6.7050   7.0001   7.0953   7.4334   7.4334
     7.4366   7.4366   7.4473   7.4473   7.4766   7.4817   8.0473   8.0473
     8.1194   8.1194   8.1341   8.1341   8.6069   8.6069   8.6194   8.6194
     8.7319   8.7319   8.7579   8.7662   9.1750   9.7905  10.3803  10.3812
    11.0272  11.0272  11.2633  11.2633  11.2661  11.2661  11.7390  11.7415
    12.1504  12.2288  12.2288  12.2319  12.2319  12.4831  12.4831  15.5182
    15.5225  15.6394  16.0734  16.1930

     occupation numbers 
     1.0000   1.0000   1.0000   1.0000   1.0000   1.0000   1.0000   1.0000
     1.0000   1.0000   1.0000   1.0000   1.0000   1.0000   1.0000   1.0000
     1.0000   1.0000   1.0000   1.0000   1.0000   1.0000   1.0000   1.0000
     1.0000   1.0000   1.0000   1.0000   1.0000   1.0000   1.0000   1.0000
     1.0000   1.0000   1.0000   1.0000   1.0000   1.0000   1.0000   1.0000
     1.0000   1.0000   1.0000   1.0000   1.0000   1.0000   1.0000   1.0000
     1.0000   1.0000   1.0000   1.0000   1.0000   1.0000   1.0000   1.0000
     1.0000   1.0000   1.0000   1.0000   1.0000   1.0000   1.0000   1.0000
     1.0000   1.0000   1.0000   1.0000   1.0000   1.0000   1.0000   1.0000
     1.0000   1.0000   1.0000   1.0000   1.0000   1.0000   1.0000   1.0000
     1.0000   1.0000   1.0000   1.0000   1.0000   1.0000   1.0000   1.0000
     1.0000   1.0000   1.0000   1.0000   1.0000   1.0000   1.0000   1.0000
     1.0000   1.0000   1.0000   1.0000   1.0000   1.0000   1.0000   1.0000
     1.0000   1.0000   1.0000   1.0000   1.0000   1.0000   1.0000   1.0000
     1.0000   1.0000   1.0000   1.0000   0.9483   0.0000   0.0000   0.0000
     0.0000   0.0000   0.0000   0.0000   0.0000   0.0000   0.0000   0.0000
     0.0000   0.0000   0.0000   0.0000   0.0000   0.0000   0.0000   0.0000
     0.0000   0.0000   0.0000   0.0000

          k = 0.0000 0.0000-0.0726 ( 12156 PWs)   bands (ev):

   -38.6811 -38.6728 -38.6728 -38.6728 -38.6435 -38.6435 -38.6358 -38.6358
   -38.5271 -38.5271 -38.4866 -38.4866 -38.4775 -38.4775 -38.4530 -38.4165
   -38.4165 -38.3951 -38.2630 -38.2519 -38.2517 -38.2517 -38.2374 -38.2374
   -38.1907 -38.1782 -38.1588 -38.1588 -38.1490 -38.1490 -38.1242 -38.1242
   -38.0240 -38.0240 -38.0106 -38.0106 -37.9947 -37.9947 -37.8868 -37.8868
   -37.8716 -37.8716 -37.7778 -37.7778 -37.6305 -13.0846 -13.0846 -13.0832
   -13.0818 -13.0818 -13.0777 -13.0746 -13.0746 -13.0700 -13.0700 -13.0699
   -13.0699 -13.0691 -13.0671 -13.0668 -13.0668 -13.0641 -13.0641 -13.0620
   -13.0620 -13.0606 -13.0545 -13.0518 -13.0518 -13.0494 -13.0494 -13.0415
   -13.0415 -13.0376 -13.0376  -6.2324  -6.2311  -6.1804  -5.5525  -5.4184
    -5.4182  -3.7418  -3.7384  -3.3372  -2.6755  -2.0864  -2.0859  -1.3837
    -1.3754  -1.0959   6.6530   6.8366   6.8446   7.2754   7.2838   7.4316
     7.4316   7.4392   7.4392   7.4461   7.4461   7.5680   8.0649   8.0649
     8.0773   8.0773   8.1605   8.1605   8.5669   8.5669   8.6553   8.6876
     8.6876   8.7009   8.7009   8.9979   9.0078  10.0083  10.0091  10.5953
    11.0969  11.0969  11.0976  11.0976  11.3727  11.3727  11.5478  12.0256
    12.0280  12.1171  12.1171  12.4068  12.4068  12.4081  12.4081  15.4863
    15.5976  15.5997  15.9395  15.9413

     occupation numbers 
     1.0000   1.0000   1.0000   1.0000   1.0000   1.0000   1.0000   1.0000
     1.0000   1.0000   1.0000   1.0000   1.0000   1.0000   1.0000   1.0000
     1.0000   1.0000   1.0000   1.0000   1.0000   1.0000   1.0000   1.0000
     1.0000   1.0000   1.0000   1.0000   1.0000   1.0000   1.0000   1.0000
     1.0000   1.0000   1.0000   1.0000   1.0000   1.0000   1.0000   1.0000
     1.0000   1.0000   1.0000   1.0000   1.0000   1.0000   1.0000   1.0000
     1.0000   1.0000   1.0000   1.0000   1.0000   1.0000   1.0000   1.0000
     1.0000   1.0000   1.0000   1.0000   1.0000   1.0000   1.0000   1.0000
     1.0000   1.0000   1.0000   1.0000   1.0000   1.0000   1.0000   1.0000
     1.0000   1.0000   1.0000   1.0000   1.0000   1.0000   1.0000   1.0000
     1.0000   1.0000   1.0000   1.0000   1.0000   1.0000   1.0000   1.0000
     1.0000   1.0000   1.0000   1.0000   1.0000   1.0000   1.0000   1.0000
     1.0000   1.0000   1.0000   1.0000   1.0000   1.0000   1.0000   1.0000
     1.0000   1.0000   1.0000   1.0000   1.0000   1.0000   1.0000   1.0000
     1.0000   1.0000   1.0000   1.0081   1.0114   0.0000   0.0000   0.0000
     0.0000   0.0000   0.0000   0.0000   0.0000   0.0000   0.0000   0.0000
     0.0000   0.0000   0.0000   0.0000   0.0000   0.0000   0.0000   0.0000
     0.0000   0.0000   0.0000   0.0000

          k = 0.0000 0.2887 0.0000 ( 12172 PWs)   bands (ev):

   -38.7186 -38.6822 -38.6593 -38.6282 -38.6079 -38.5986 -38.5920 -38.5901
   -38.5829 -38.5647 -38.4979 -38.4807 -38.4353 -38.4262 -38.4100 -38.3396
   -38.2797 -38.2651 -38.2583 -38.2578 -38.2440 -38.2315 -38.2101 -38.1957
   -38.1859 -38.1819 -38.1399 -38.1338 -38.1174 -38.1124 -38.0566 -38.0335
   -38.0323 -38.0254 -38.0143 -37.9864 -37.9485 -37.9449 -37.9221 -37.8939
   -37.8682 -37.8511 -37.8247 -37.8196 -37.7492 -13.0859 -13.0839 -13.0772
   -13.0749 -13.0743 -13.0741 -13.0724 -13.0720 -13.0708 -13.0700 -13.0682
   -13.0675 -13.0666 -13.0639 -13.0632 -13.0622 -13.0596 -13.0590 -13.0566
   -13.0554 -13.0528 -13.0501 -13.0486 -13.0471 -13.0453 -13.0451 -13.0442
   -13.0431 -13.0404 -13.0396  -5.7235  -5.6864  -5.6805  -5.0851  -5.0700
    -4.9734  -3.5720  -3.3895  -3.2916  -2.6755  -2.4976  -2.2419  -2.0063
    -1.8781  -1.7834   5.2185   5.3980   5.4042   6.1206   6.1799   6.2298
     6.3636   6.3716   6.6527   6.6718   6.7464   6.9725   6.9963   7.4183
     7.4191   7.4884   7.6378   7.6884   7.7592   8.3321   8.3603   8.4051
     8.4419   8.5377   8.5662   8.7158   8.9864  10.3646  10.9785  10.9798
    11.3363  11.5482  11.5707  11.5769  11.7674  12.0482  12.2871  12.5836
    12.6060  12.6776  12.8357  12.8812  12.9511  13.2579  13.4102  14.1715
    14.4765  14.5022  15.9475  16.0564

     occupation numbers 
     1.0000   1.0000   1.0000   1.0000   1.0000   1.0000   1.0000   1.0000
     1.0000   1.0000   1.0000   1.0000   1.0000   1.0000   1.0000   1.0000
     1.0000   1.0000   1.0000   1.0000   1.0000   1.0000   1.0000   1.0000
     1.0000   1.0000   1.0000   1.0000   1.0000   1.0000   1.0000   1.0000
     1.0000   1.0000   1.0000   1.0000   1.0000   1.0000   1.0000   1.0000
     1.0000   1.0000   1.0000   1.0000   1.0000   1.0000   1.0000   1.0000
     1.0000   1.0000   1.0000   1.0000   1.0000   1.0000   1.0000   1.0000
     1.0000   1.0000   1.0000   1.0000   1.0000   1.0000   1.0000   1.0000
     1.0000   1.0000   1.0000   1.0000   1.0000   1.0000   1.0000   1.0000
     1.0000   1.0000   1.0000   1.0000   1.0000   1.0000   1.0000   1.0000
     1.0000   1.0000   1.0000   1.0000   1.0000   1.0000   1.0000   1.0000
     1.0000   1.0000   1.0000   1.0000   1.0000   1.0000   1.0000   1.0000
     1.0000   1.0000   1.0000   1.0000   1.0000   1.0000   1.0000   1.0000
     1.0000   1.0000   1.0000   1.0000   1.0000   1.0000   1.0000   1.0000
     1.0000   1.0000   1.0000   1.0000   1.0053   0.0000   0.0000   0.0000
     0.0000   0.0000   0.0000   0.0000   0.0000   0.0000   0.0000   0.0000
     0.0000   0.0000   0.0000   0.0000   0.0000   0.0000   0.0000   0.0000
     0.0000   0.0000   0.0000   0.0000

          k = 0.0000 0.2887-0.0726 ( 12176 PWs)   bands (ev):

   -38.7521 -38.6762 -38.6715 -38.6592 -38.6530 -38.6287 -38.5906 -38.5723
   -38.5611 -38.5581 -38.5454 -38.4890 -38.4818 -38.4728 -38.4054 -38.3576
   -38.3349 -38.3273 -38.3097 -38.2645 -38.2546 -38.2251 -38.2250 -38.2228
   -38.1538 -38.1498 -38.1445 -38.1156 -38.0800 -38.0779 -38.0552 -38.0501
   -38.0392 -38.0199 -37.9758 -37.9608 -37.9552 -37.9491 -37.9221 -37.8843
   -37.8730 -37.8640 -37.8557 -37.7799 -37.7759 -13.0892 -13.0841 -13.0794
   -13.0785 -13.0755 -13.0747 -13.0734 -13.0724 -13.0721 -13.0705 -13.0702
   -13.0685 -13.0670 -13.0655 -13.0641 -13.0618 -13.0597 -13.0570 -13.0543
   -13.0527 -13.0517 -13.0510 -13.0482 -13.0478 -13.0470 -13.0431 -13.0422
   -13.0420 -13.0407 -13.0402  -5.7133  -5.7090  -5.6679  -5.1126  -5.0160
    -5.0005  -3.5364  -3.4686  -3.2378  -2.7089  -2.4645  -2.2470  -2.0229
    -1.8568  -1.7928   5.2672   5.2698   5.5046   6.0770   6.1195   6.2678
     6.2785   6.6321   6.6402   6.7023   6.7268   6.7796   7.1370   7.1556
     7.4813   7.5363   7.5637   7.9070   8.0158   8.0781   8.1731   8.1877
     8.6061   8.6301   8.7031   8.8136   8.8226  10.5310  10.5790  11.3071
    11.3723  11.4304  11.5100  11.6697  11.7982  11.9292  12.3749  12.4909
    12.6095  12.7142  12.7828  12.9724  12.9779  13.1839  13.4314  14.2561
    14.2714  14.6347  15.7998  16.2524

     occupation numbers 
     1.0000   1.0000   1.0000   1.0000   1.0000   1.0000   1.0000   1.0000
     1.0000   1.0000   1.0000   1.0000   1.0000   1.0000   1.0000   1.0000
     1.0000   1.0000   1.0000   1.0000   1.0000   1.0000   1.0000   1.0000
     1.0000   1.0000   1.0000   1.0000   1.0000   1.0000   1.0000   1.0000
     1.0000   1.0000   1.0000   1.0000   1.0000   1.0000   1.0000   1.0000
     1.0000   1.0000   1.0000   1.0000   1.0000   1.0000   1.0000   1.0000
     1.0000   1.0000   1.0000   1.0000   1.0000   1.0000   1.0000   1.0000
     1.0000   1.0000   1.0000   1.0000   1.0000   1.0000   1.0000   1.0000
     1.0000   1.0000   1.0000   1.0000   1.0000   1.0000   1.0000   1.0000
     1.0000   1.0000   1.0000   1.0000   1.0000   1.0000   1.0000   1.0000
     1.0000   1.0000   1.0000   1.0000   1.0000   1.0000   1.0000   1.0000
     1.0000   1.0000   1.0000   1.0000   1.0000   1.0000   1.0000   1.0000
     1.0000   1.0000   1.0000   1.0000   1.0000   1.0000   1.0000   1.0000
     1.0000   1.0000   1.0000   1.0000   1.0000   1.0000   1.0000   1.0000
     1.0000   1.0000   1.0000   1.0000   1.0000   0.0000   0.0000   0.0000
     0.0000   0.0000   0.0000   0.0000   0.0000   0.0000   0.0000   0.0000
     0.0000   0.0000   0.0000   0.0000   0.0000   0.0000   0.0000   0.0000
     0.0000   0.0000   0.0000   0.0000

          k = 0.0000-0.5774 0.0000 ( 12226 PWs)   bands (ev):

   -38.9173 -38.8114 -38.8018 -38.6808 -38.6754 -38.6404 -38.6349 -38.6345
   -38.6341 -38.6218 -38.6192 -38.5347 -38.5332 -38.4294 -38.4103 -38.4011
   -38.4010 -38.3612 -38.3457 -38.3296 -38.3139 -38.3132 -38.3114 -38.3018
   -38.2815 -38.2017 -38.1864 -38.1711 -38.1606 -38.1499 -38.1109 -38.1027
   -38.1001 -38.0951 -38.0818 -38.0679 -38.0464 -38.0192 -38.0173 -38.0165
   -37.9832 -37.9810 -37.9096 -37.9083 -37.9081 -13.0998 -13.0995 -13.0917
   -13.0877 -13.0833 -13.0813 -13.0766 -13.0763 -13.0760 -13.0734 -13.0695
   -13.0676 -13.0638 -13.0635 -13.0619 -13.0607 -13.0604 -13.0563 -13.0514
   -13.0502 -13.0502 -13.0489 -13.0475 -13.0471 -13.0471 -13.0457 -13.0455
   -13.0453 -13.0440 -13.0421  -4.6715  -4.6656  -4.6617  -4.5697  -4.5680
    -4.5605  -3.5552  -3.5542  -3.5094  -2.9965  -2.8600  -2.8501  -2.5764
    -2.5638  -2.4704   4.1423   4.1432   4.4099   5.2787   5.5492   5.7287
     5.7344   6.0422   6.0447   6.1122   6.2043   6.2098   6.5392   6.5466
     7.0740   7.0828   7.2507   7.4441   7.4475   7.6754   7.6863   7.7821
     8.4568   8.4645   8.4969   8.5733   8.5802  10.6052  10.6065  10.6125
    11.3519  11.3538  11.7266  11.9214  11.9220  11.9687  12.5059  12.8919
    12.8967  12.8997  13.3263  13.4093  13.4113  13.6607  13.6633  13.9153
    13.9191  14.4545  15.4382  15.4412

     occupation numbers 
     1.0000   1.0000   1.0000   1.0000   1.0000   1.0000   1.0000   1.0000
     1.0000   1.0000   1.0000   1.0000   1.0000   1.0000   1.0000   1.0000
     1.0000   1.0000   1.0000   1.0000   1.0000   1.0000   1.0000   1.0000
     1.0000   1.0000   1.0000   1.0000   1.0000   1.0000   1.0000   1.0000
     1.0000   1.0000   1.0000   1.0000   1.0000   1.0000   1.0000   1.0000
     1.0000   1.0000   1.0000   1.0000   1.0000   1.0000   1.0000   1.0000
     1.0000   1.0000   1.0000   1.0000   1.0000   1.0000   1.0000   1.0000
     1.0000   1.0000   1.0000   1.0000   1.0000   1.0000   1.0000   1.0000
     1.0000   1.0000   1.0000   1.0000   1.0000   1.0000   1.0000   1.0000
     1.0000   1.0000   1.0000   1.0000   1.0000   1.0000   1.0000   1.0000
     1.0000   1.0000   1.0000   1.0000   1.0000   1.0000   1.0000   1.0000
     1.0000   1.0000   1.0000   1.0000   1.0000   1.0000   1.0000   1.0000
     1.0000   1.0000   1.0000   1.0000   1.0000   1.0000   1.0000   1.0000
     1.0000   1.0000   1.0000   1.0000   1.0000   1.0000   1.0000   1.0000
     1.0000   1.0000   1.0000   1.0000   1.0000   0.0000   0.0000   0.0000
     0.0000   0.0000   0.0000   0.0000   0.0000   0.0000   0.0000   0.0000
     0.0000   0.0000   0.0000   0.0000   0.0000   0.0000   0.0000   0.0000
     0.0000   0.0000   0.0000   0.0000

          k = 0.0000-0.5774-0.0726 ( 12156 PWs)   bands (ev):

   -38.7079 -38.6800 -38.6702 -38.5800 -38.5735 -38.5560 -38.5348 -38.5268
   -38.5014 -38.4614 -38.4097 -38.3935 -38.3885 -38.3589 -38.3527 -38.3041
   -38.2590 -38.2574 -38.2299 -38.2272 -38.2036 -38.1969 -38.1933 -38.1779
   -38.1695 -38.1586 -38.1048 -38.0208 -38.0183 -37.9959 -37.9447 -37.9363
   -37.9261 -37.9190 -37.9181 -37.9132 -37.9041 -37.8950 -37.8823 -37.8773
   -37.8486 -37.8323 -37.8269 -37.8061 -37.7992 -13.0977 -13.0942 -13.0883
   -13.0811 -13.0783 -13.0737 -13.0736 -13.0728 -13.0691 -13.0618 -13.0598
   -13.0596 -13.0590 -13.0548 -13.0544 -13.0525 -13.0494 -13.0481 -13.0467
   -13.0463 -13.0452 -13.0422 -13.0410 -13.0410 -13.0394 -13.0391 -13.0383
   -13.0379 -13.0342 -13.0318  -4.6698  -4.6683  -4.6595  -4.5719  -4.5627
    -4.5623  -3.5672  -3.5280  -3.5238  -2.9596  -2.9478  -2.7806  -2.6327
    -2.5034  -2.4918   4.0833   4.2942   4.2997   5.5051   5.5105   5.6091
     5.6100   5.8483   6.1394   6.1404   6.2504   6.3328   6.5952   6.8402
     6.9289   6.9344   6.9626   7.3559   7.3623   7.9874   7.9907   8.1218
     8.1296   8.2158   8.2168   8.6042   8.8376  10.3456  10.8317  10.8341
    11.1893  11.5264  11.5265  11.7225  11.7243  12.4358  12.7089  12.7132
    12.8000  13.1079  13.1119  13.4550  13.4552  13.5327  13.6541  13.7849
    14.2933  14.2954  15.2617  15.9420

     occupation numbers 
     1.0000   1.0000   1.0000   1.0000   1.0000   1.0000   1.0000   1.0000
     1.0000   1.0000   1.0000   1.0000   1.0000   1.0000   1.0000   1.0000
     1.0000   1.0000   1.0000   1.0000   1.0000   1.0000   1.0000   1.0000
     1.0000   1.0000   1.0000   1.0000   1.0000   1.0000   1.0000   1.0000
     1.0000   1.0000   1.0000   1.0000   1.0000   1.0000   1.0000   1.0000
     1.0000   1.0000   1.0000   1.0000   1.0000   1.0000   1.0000   1.0000
     1.0000   1.0000   1.0000   1.0000   1.0000   1.0000   1.0000   1.0000
     1.0000   1.0000   1.0000   1.0000   1.0000   1.0000   1.0000   1.0000
     1.0000   1.0000   1.0000   1.0000   1.0000   1.0000   1.0000   1.0000
     1.0000   1.0000   1.0000   1.0000   1.0000   1.0000   1.0000   1.0000
     1.0000   1.0000   1.0000   1.0000   1.0000   1.0000   1.0000   1.0000
     1.0000   1.0000   1.0000   1.0000   1.0000   1.0000   1.0000   1.0000
     1.0000   1.0000   1.0000   1.0000   1.0000   1.0000   1.0000   1.0000
     1.0000   1.0000   1.0000   1.0000   1.0000   1.0000   1.0000   1.0000
     1.0000   1.0000   1.0000   1.0000   1.0000   0.0000   0.0000   0.0000
     0.0000   0.0000   0.0000   0.0000   0.0000   0.0000   0.0000   0.0000
     0.0000   0.0000   0.0000   0.0000   0.0000   0.0000   0.0000   0.0000
     0.0000   0.0000   0.0000   0.0000

          k = 0.2500 0.4330 0.0000 ( 12194 PWs)   bands (ev):

   -38.7566 -38.7199 -38.7110 -38.6957 -38.6050 -38.6041 -38.5789 -38.5425
   -38.5418 -38.5317 -38.5080 -38.5060 -38.5022 -38.4755 -38.4733 -38.3805
   -38.3759 -38.3551 -38.2648 -38.2328 -38.2246 -38.2018 -38.1971 -38.1911
   -38.1670 -38.1573 -38.1521 -38.1436 -38.1228 -38.1173 -38.0939 -38.0807
   -38.0743 -38.0277 -37.9752 -37.9693 -37.9553 -37.9512 -37.9461 -37.9382
   -37.9358 -37.9260 -37.9180 -37.8646 -37.8550 -13.0920 -13.0873 -13.0828
   -13.0762 -13.0753 -13.0743 -13.0723 -13.0717 -13.0703 -13.0691 -13.0684
   -13.0658 -13.0649 -13.0644 -13.0639 -13.0625 -13.0603 -13.0592 -13.0569
   -13.0556 -13.0540 -13.0482 -13.0476 -13.0449 -13.0437 -13.0424 -13.0398
   -13.0378 -13.0355 -13.0339  -4.8348  -4.8152  -4.8117  -4.4768  -4.4756
    -4.4420  -3.3948  -3.3662  -3.3607  -2.9323  -2.9214  -2.8907  -2.6362
    -2.6236  -2.6054   4.7829   4.7867   4.8711   4.8717   5.0478   5.0489
     5.6333   5.6351   5.8937   5.8997   5.9012   6.2937   6.2948   6.4480
     6.8191   6.8509   7.2322   7.2371   7.4840   7.6526   8.0667   8.0676
     8.2571   8.2641   8.6318   8.6340   8.8607  10.8760  10.8772  11.1119
    11.4669  11.4690  11.7206  11.9577  11.9585  12.2617  12.8881  12.8922
    12.8978  13.3653  13.3910  13.3920  13.5647  13.9389  13.9391  15.5997
    15.6009  15.6309  15.6668  15.8990

     occupation numbers 
     1.0000   1.0000   1.0000   1.0000   1.0000   1.0000   1.0000   1.0000
     1.0000   1.0000   1.0000   1.0000   1.0000   1.0000   1.0000   1.0000
     1.0000   1.0000   1.0000   1.0000   1.0000   1.0000   1.0000   1.0000
     1.0000   1.0000   1.0000   1.0000   1.0000   1.0000   1.0000   1.0000
     1.0000   1.0000   1.0000   1.0000   1.0000   1.0000   1.0000   1.0000
     1.0000   1.0000   1.0000   1.0000   1.0000   1.0000   1.0000   1.0000
     1.0000   1.0000   1.0000   1.0000   1.0000   1.0000   1.0000   1.0000
     1.0000   1.0000   1.0000   1.0000   1.0000   1.0000   1.0000   1.0000
     1.0000   1.0000   1.0000   1.0000   1.0000   1.0000   1.0000   1.0000
     1.0000   1.0000   1.0000   1.0000   1.0000   1.0000   1.0000   1.0000
     1.0000   1.0000   1.0000   1.0000   1.0000   1.0000   1.0000   1.0000
     1.0000   1.0000   1.0000   1.0000   1.0000   1.0000   1.0000   1.0000
     1.0000   1.0000   1.0000   1.0000   1.0000   1.0000   1.0000   1.0000
     1.0000   1.0000   1.0000   1.0000   1.0000   1.0000   1.0000   1.0000
     1.0000   1.0000   1.0000   1.0000   1.0000   0.0000   0.0000   0.0000
     0.0000   0.0000   0.0000   0.0000   0.0000   0.0000   0.0000   0.0000
     0.0000   0.0000   0.0000   0.0000   0.0000   0.0000   0.0000   0.0000
     0.0000   0.0000   0.0000   0.0000

          k = 0.2500 0.4330-0.0726 ( 12214 PWs)   bands (ev):

   -38.7531 -38.7481 -38.7310 -38.6834 -38.6832 -38.6709 -38.6190 -38.6177
   -38.5931 -38.5890 -38.5728 -38.5658 -38.5635 -38.5475 -38.4982 -38.3746
   -38.3607 -38.3012 -38.2951 -38.2937 -38.2674 -38.2596 -38.2493 -38.2419
   -38.2186 -38.2057 -38.1587 -38.1524 -38.1297 -38.1198 -38.1140 -38.0821
   -38.0725 -38.0639 -38.0486 -38.0368 -38.0293 -38.0223 -38.0060 -37.9977
   -37.9963 -37.9480 -37.8934 -37.8890 -37.8755 -13.0912 -13.0900 -13.0816
   -13.0797 -13.0796 -13.0774 -13.0752 -13.0750 -13.0720 -13.0719 -13.0687
   -13.0686 -13.0681 -13.0662 -13.0646 -13.0625 -13.0621 -13.0590 -13.0589
   -13.0588 -13.0531 -13.0507 -13.0479 -13.0471 -13.0467 -13.0438 -13.0413
   -13.0404 -13.0387 -13.0361  -4.8291  -4.8275  -4.8054  -4.4882  -4.4535
    -4.4529  -3.3864  -3.3830  -3.3524  -2.9381  -2.9109  -2.8956  -2.6341
    -2.6264  -2.6047   4.7743   4.7745   4.8974   4.8977   5.0044   5.0559
     5.5571   5.7862   5.7922   5.9162   5.9574   6.2383   6.2384   6.6114
     6.6150   7.0473   7.0512   7.4530   7.4541   7.6090   7.8323   8.1814
     8.1836   8.5294   8.6436   8.6712   8.6785  10.7750  11.2370  11.2383
    11.2787  11.3583  11.3602  12.0400  12.2923  12.2935  12.7185  12.8821
    12.8833  13.2716  13.2723  13.5763  13.7669  13.7690  13.9617  15.5705
    15.5705  15.6851  15.7825  15.8070

     occupation numbers 
     1.0000   1.0000   1.0000   1.0000   1.0000   1.0000   1.0000   1.0000
     1.0000   1.0000   1.0000   1.0000   1.0000   1.0000   1.0000   1.0000
     1.0000   1.0000   1.0000   1.0000   1.0000   1.0000   1.0000   1.0000
     1.0000   1.0000   1.0000   1.0000   1.0000   1.0000   1.0000   1.0000
     1.0000   1.0000   1.0000   1.0000   1.0000   1.0000   1.0000   1.0000
     1.0000   1.0000   1.0000   1.0000   1.0000   1.0000   1.0000   1.0000
     1.0000   1.0000   1.0000   1.0000   1.0000   1.0000   1.0000   1.0000
     1.0000   1.0000   1.0000   1.0000   1.0000   1.0000   1.0000   1.0000
     1.0000   1.0000   1.0000   1.0000   1.0000   1.0000   1.0000   1.0000
     1.0000   1.0000   1.0000   1.0000   1.0000   1.0000   1.0000   1.0000
     1.0000   1.0000   1.0000   1.0000   1.0000   1.0000   1.0000   1.0000
     1.0000   1.0000   1.0000   1.0000   1.0000   1.0000   1.0000   1.0000
     1.0000   1.0000   1.0000   1.0000   1.0000   1.0000   1.0000   1.0000
     1.0000   1.0000   1.0000   1.0000   1.0000   1.0000   1.0000   1.0000
     1.0000   1.0000   1.0000   1.0000   1.0000   0.0000   0.0000   0.0000
     0.0000   0.0000   0.0000   0.0000   0.0000   0.0000   0.0000   0.0000
     0.0000   0.0000   0.0000   0.0000   0.0000   0.0000   0.0000   0.0000
     0.0000   0.0000   0.0000   0.0000

     the Fermi energy is     9.2551 ev

!    total energy              =   -3127.18230414 Ry
     estimated scf accuracy    <       0.00274940 Ry
     smearing contrib. (-TS)   =       0.00008515 Ry
     internal energy E=F+TS    =   -3127.18238929 Ry

     The total energy is F=E-TS. E is the sum of the following terms:
     one-electron contribution =   -1447.33995490 Ry
     hartree contribution      =     800.17134049 Ry
     xc contribution           =    -680.02440068 Ry
     ewald contribution        =   -1799.98937420 Ry

     convergence has been achieved in   7 iterations

     Writing output data file ./tmp/bi2se3-01.save/

     init_run     :      6.25s CPU      6.35s WALL (       1 calls)
     electrons    :    329.06s CPU    332.27s WALL (       1 calls)

     Called by init_run:
     wfcinit      :      5.64s CPU      5.72s WALL (       1 calls)
     wfcinit:atom :      0.01s CPU      0.02s WALL (       8 calls)
     wfcinit:wfcr :      5.61s CPU      5.67s WALL (       8 calls)
     potinit      :      0.17s CPU      0.18s WALL (       1 calls)
     hinit0       :      0.38s CPU      0.38s WALL (       1 calls)

     Called by electrons:
     c_bands      :    317.32s CPU    320.12s WALL (       7 calls)
     sum_band     :     11.37s CPU     11.75s WALL (       7 calls)
     v_of_rho     :      0.31s CPU      0.32s WALL (       8 calls)
     v_h          :      0.02s CPU      0.02s WALL (       8 calls)
     v_xc         :      0.29s CPU      0.30s WALL (       8 calls)
     mix_rho      :      0.04s CPU      0.04s WALL (       7 calls)

     Called by c_bands:
     init_us_2    :      0.46s CPU      0.47s WALL (     120 calls)
     cegterg      :    311.99s CPU    314.76s WALL (      56 calls)

     Called by sum_band:
     sum_band:wei :      0.01s CPU      0.01s WALL (       7 calls)
     sum_band:loo :     11.32s CPU     11.70s WALL (       7 calls)
     sum_band:buf :      0.08s CPU      0.08s WALL (      56 calls)
     sum_band:ini :      0.18s CPU      0.19s WALL (      56 calls)

     Called by *egterg:
     cdiaghg      :     51.09s CPU     51.31s WALL (     420 calls)
     cegterg:over :     51.90s CPU     52.03s WALL (     364 calls)
     cegterg:upda :     25.06s CPU     25.18s WALL (     364 calls)
     cegterg:last :     37.13s CPU     37.15s WALL (      99 calls)
     cdiaghg:chol :      2.46s CPU      2.46s WALL (     420 calls)
     cdiaghg:inve :      0.20s CPU      0.20s WALL (     420 calls)
     cdiaghg:para :     17.62s CPU     17.77s WALL (     840 calls)
     h_psi        :    126.71s CPU    129.00s WALL (     428 calls)
     g_psi        :      0.25s CPU      0.26s WALL (     364 calls)

     Called by h_psi:
     h_psi:calbec :     44.57s CPU     44.68s WALL (     428 calls)
     vloc_psi     :     46.52s CPU     48.64s WALL (     428 calls)
     add_vuspsi   :     35.42s CPU     35.44s WALL (     428 calls)

     General routines
     calbec       :     44.57s CPU     44.68s WALL (     428 calls)
     fft          :      0.20s CPU      0.20s WALL (      80 calls)
     ffts         :      0.01s CPU      0.01s WALL (       7 calls)
     fftw         :     52.95s CPU     55.23s WALL (   46268 calls)

     Parallel routines
     fft_scatt_xy :      4.74s CPU      4.96s WALL (   46355 calls)
     fft_scatt_yz :     34.32s CPU     35.74s WALL (   46355 calls)

     PWSCF        :   5m35.63s CPU   5m39.40s WALL


   This run was terminated on:  12:18:35  27Apr2024            

=------------------------------------------------------------------------------=
   JOB DONE.
=------------------------------------------------------------------------------=
