
     Program BANDS v.6.7MaX starts on 22Mar2024 at 16:33:32 

     This program is part of the open-source Quantum ESPRESSO suite
     for quantum simulation of materials; please cite
         "P. Giannozzi et al., J. Phys.:Condens. Matter 21 395502 (2009);
         "P. Giannozzi et al., J. Phys.:Condens. Matter 29 465901 (2017);
          URL http://www.quantum-espresso.org", 
     in publications or presentations arising from this work. More details at
     http://www.quantum-espresso.org/quote

     Parallel version (MPI), running on     1 processors

     MPI processes distributed on     1 nodes

     Reading xml data from directory:

     ./tmp/VLAB.save/
     Message from routine read_pp_mesh:
     mesh size missing, using the one in header

     IMPORTANT: XC functional enforced from input :
     Exchange-correlation= PBE
                           (   1   4   3   4   0   0   0)
     Any further DFT definition will be discarded
     Please, verify this is what you really want


     G-vector sticks info
     --------------------
     sticks:   dense  smooth     PW     G-vecs:    dense   smooth      PW
     Sum         265     265    163                28761    28761   13495


     negative rho (up, down):  3.672E-04 0.000E+00
     Reading collected, re-writing distributed wavefunctions
     high-symmetry point:  0.0000 0.0000 0.0000   x coordinate   0.0000
     high-symmetry point:  0.3333 0.5769 0.0000   x coordinate   0.6663
     high-symmetry point:  0.5000 0.2885 0.0000   x coordinate   0.9994
     high-symmetry point:  0.0000 0.0000 0.0000   x coordinate   1.5767

     Plottable bands (eV) written to file graphene.bands.dat.gnu
     Bands written to file graphene.bands.dat

 **************************************************************************

                    xk=(   0.00000,   0.00000,   0.00000  )

     point group C_2v (mm2) 
     there are  4 classes
     the character table:

       E     C2    s_v   s_v' 
A_1    1.00  1.00  1.00  1.00
A_2    1.00  1.00 -1.00 -1.00
B_1    1.00 -1.00  1.00 -1.00
B_2    1.00 -1.00 -1.00  1.00

     the symmetry operations in each class and the name of the first element:

     E        1
                                                                 
     C2       2
                                                                 
     s_v      3
                                                                 
     s_v'     4
                                                                 

     Band symmetry, C_2v (mm2)  point group:

     e(  1 -  1) =    -21.90935  eV     1   --> A_1  D_1  S_1  
     e(  2 -  2) =     -9.99169  eV     1   --> B_2  D_4  S_4  
     e(  3 -  3) =     -5.39315  eV     1   --> B_1  D_3  S_3  
     e(  4 -  4) =     -5.38038  eV     1   --> A_1  D_1  S_1  
     e(  5 -  5) =      0.85846  eV     1   --> A_1  D_1  S_1  
     e(  6 -  6) =      1.52525  eV     1   --> B_2  D_4  S_4  
     e(  7 -  7) =      1.65993  eV     1   --> A_1  D_1  S_1  
     e(  8 -  8) =      2.66720  eV     1   --> B_2  D_4  S_4  
     e(  9 -  9) =      3.10201  eV     1   --> A_1  D_1  S_1  
     e( 10 - 10) =      4.78693  eV     1   --> B_2  D_4  S_4  

 **************************************************************************

 **************************************************************************

                    xk=(   0.01111,   0.01923,   0.00000  )

     point group C_s (m)    
     there are  2 classes
     the character table:

       E     s    
A'     1.00  1.00
A''    1.00 -1.00

     the symmetry operations in each class and the name of the first element:

     E        1
                                                                 
     s        2
                                                                 

     Band symmetry, C_s (m)     point group:

     e(  1 -  1) =    -21.90059  eV     1   --> A'             
     e(  2 -  2) =     -9.98117  eV     1   --> A''            
     e(  3 -  3) =     -5.42241  eV     1   --> A'             
     e(  4 -  4) =     -5.40721  eV     1   --> A'             
     e(  5 -  5) =      0.87041  eV     1   --> A'             
     e(  6 -  6) =      1.53737  eV     1   --> A''            
     e(  7 -  7) =      1.67213  eV     1   --> A'             
     e(  8 -  8) =      2.67928  eV     1   --> A''            
     e(  9 -  9) =      3.11409  eV     1   --> A'             
     e( 10 - 10) =      4.79892  eV     1   --> A''            

 **************************************************************************

 **************************************************************************

                    xk=(   0.02222,   0.03846,   0.00000  )

     Band symmetry, C_s (m)     point group:

     e(  1 -  1) =    -21.87430  eV     1   --> A'             
     e(  2 -  2) =     -9.94961  eV     1   --> A''            
     e(  3 -  3) =     -5.52830  eV     1   --> A'             
     e(  4 -  4) =     -5.46738  eV     1   --> A'             
     e(  5 -  5) =      0.90625  eV     1   --> A'             
     e(  6 -  6) =      1.57373  eV     1   --> A''            
     e(  7 -  7) =      1.70872  eV     1   --> A'             
     e(  8 -  8) =      2.71553  eV     1   --> A''            
     e(  9 -  9) =      3.15032  eV     1   --> A'             
     e( 10 - 10) =      4.83489  eV     1   --> A''            

 **************************************************************************

 **************************************************************************

                    xk=(   0.03333,   0.05769,   0.00000  )

     Band symmetry, C_s (m)     point group:

     e(  1 -  1) =    -21.83050  eV     1   --> A'             
     e(  2 -  2) =     -9.89706  eV     1   --> A''            
     e(  3 -  3) =     -5.70168  eV     1   --> A'             
     e(  4 -  4) =     -5.56385  eV     1   --> A'             
     e(  5 -  5) =      0.96600  eV     1   --> A'             
     e(  6 -  6) =      1.63432  eV     1   --> A''            
     e(  7 -  7) =      1.76970  eV     1   --> A'             
     e(  8 -  8) =      2.77594  eV     1   --> A''            
     e(  9 -  9) =      3.21072  eV     1   --> A'             
     e( 10 - 10) =      4.89481  eV     1   --> A''            

 **************************************************************************

 **************************************************************************

                    xk=(   0.04444,   0.07692,   0.00000  )

     Band symmetry, C_s (m)     point group:

     e(  1 -  1) =    -21.76921  eV     1   --> A'             
     e(  2 -  2) =     -9.82358  eV     1   --> A''            
     e(  3 -  3) =     -5.93346  eV     1   --> A'             
     e(  4 -  4) =     -5.69650  eV     1   --> A'             
     e(  5 -  5) =      1.04965  eV     1   --> A'             
     e(  6 -  6) =      1.71914  eV     1   --> A''            
     e(  7 -  7) =      1.85508  eV     1   --> A'             
     e(  8 -  8) =      2.86048  eV     1   --> A''            
     e(  9 -  9) =      3.29529  eV     1   --> A'             
     e( 10 - 10) =      4.97867  eV     1   --> A''            

 **************************************************************************

 **************************************************************************

                    xk=(   0.05556,   0.09615,   0.00000  )

     Band symmetry, C_s (m)     point group:

     e(  1 -  1) =    -21.69048  eV     1   --> A'             
     e(  2 -  2) =     -9.72928  eV     1   --> A''            
     e(  3 -  3) =     -6.21454  eV     1   --> A'             
     e(  4 -  4) =     -5.86348  eV     1   --> A'             
     e(  5 -  5) =      1.15722  eV     1   --> A'             
     e(  6 -  6) =      1.82816  eV     1   --> A''            
     e(  7 -  7) =      1.96485  eV     1   --> A'             
     e(  8 -  8) =      2.96915  eV     1   --> A''            
     e(  9 -  9) =      3.40403  eV     1   --> A'             
     e( 10 - 10) =      5.08643  eV     1   --> A''            

 **************************************************************************

 **************************************************************************

                    xk=(   0.06667,   0.11538,   0.00000  )

     Band symmetry, C_s (m)     point group:

     e(  1 -  1) =    -21.59433  eV     1   --> A'             
     e(  2 -  2) =     -9.61429  eV     1   --> A''            
     e(  3 -  3) =     -6.53574  eV     1   --> A'             
     e(  4 -  4) =     -6.06238  eV     1   --> A'             
     e(  5 -  5) =      1.28870  eV     1   --> A'             
     e(  6 -  6) =      1.96137  eV     1   --> A''            
     e(  7 -  7) =      2.09903  eV     1   --> A'             
     e(  8 -  8) =      3.10192  eV     1   --> A''            
     e(  9 -  9) =      3.53697  eV     1   --> A'             
     e( 10 - 10) =      5.21804  eV     1   --> A''            

 **************************************************************************

 **************************************************************************

                    xk=(   0.07778,   0.13462,   0.00000  )

     Band symmetry, C_s (m)     point group:

     e(  1 -  1) =    -21.48084  eV     1   --> A'             
     e(  2 -  2) =     -9.47878  eV     1   --> A''            
     e(  3 -  3) =     -6.88841  eV     1   --> A'             
     e(  4 -  4) =     -6.29044  eV     1   --> A'             
     e(  5 -  5) =      1.44409  eV     1   --> A'             
     e(  6 -  6) =      2.11874  eV     1   --> A''            
     e(  7 -  7) =      2.25762  eV     1   --> A'             
     e(  8 -  8) =      3.25875  eV     1   --> A''            
     e(  9 -  9) =      3.69411  eV     1   --> A'             
     e( 10 - 10) =      5.37343  eV     1   --> A''            

 **************************************************************************

 **************************************************************************

                    xk=(   0.08889,   0.15385,   0.00000  )

     Band symmetry, C_s (m)     point group:

     e(  1 -  1) =    -21.35007  eV     1   --> A'             
     e(  2 -  2) =     -9.32295  eV     1   --> A''            
     e(  3 -  3) =     -7.26484  eV     1   --> A'             
     e(  4 -  4) =     -6.54463  eV     1   --> A'             
     e(  5 -  5) =      1.62339  eV     1   --> A'             
     e(  6 -  6) =      2.30022  eV     1   --> A''            
     e(  7 -  7) =      2.44061  eV     1   --> A'             
     e(  8 -  8) =      3.43960  eV     1   --> A''            
     e(  9 -  9) =      3.87545  eV     1   --> A'             
     e( 10 - 10) =      5.55252  eV     1   --> A''            

 **************************************************************************

 **************************************************************************

                    xk=(   0.10000,   0.17308,   0.00000  )

     Band symmetry, C_s (m)     point group:

     e(  1 -  1) =    -21.20210  eV     1   --> A'             
     e(  2 -  2) =     -9.14704  eV     1   --> A''            
     e(  3 -  3) =     -7.65839  eV     1   --> A'             
     e(  4 -  4) =     -6.82178  eV     1   --> A'             
     e(  5 -  5) =      1.82656  eV     1   --> A'             
     e(  6 -  6) =      2.50578  eV     1   --> A''            
     e(  7 -  7) =      2.64800  eV     1   --> A'             
     e(  8 -  8) =      3.64441  eV     1   --> A''            
     e(  9 -  9) =      4.08099  eV     1   --> A'             
     e( 10 - 10) =      5.75519  eV     1   --> A''            

 **************************************************************************

 **************************************************************************

                    xk=(   0.11111,   0.19231,   0.00000  )

     Band symmetry, C_s (m)     point group:

     e(  1 -  1) =    -21.03704  eV     1   --> A'             
     e(  2 -  2) =     -8.95137  eV     1   --> A''            
     e(  3 -  3) =     -8.06346  eV     1   --> A'             
     e(  4 -  4) =     -7.11864  eV     1   --> A'             
     e(  5 -  5) =      2.05359  eV     1   --> A'             
     e(  6 -  6) =      2.73534  eV     1   --> A''            
     e(  7 -  7) =      2.87980  eV     1   --> A'             
     e(  8 -  8) =      3.87311  eV     1   --> A''            
     e(  9 -  9) =      4.31072  eV     1   --> A'             
     e( 10 - 10) =      5.98129  eV     1   --> A''            

 **************************************************************************

 **************************************************************************

                    xk=(   0.12222,   0.21154,   0.00000  )

     Band symmetry, C_s (m)     point group:

     e(  1 -  1) =    -20.85499  eV     1   --> A'             
     e(  2 -  2) =     -8.73627  eV     1   --> A''            
     e(  3 -  3) =     -8.47540  eV     1   --> A'             
     e(  4 -  4) =     -7.43201  eV     1   --> A'             
     e(  5 -  5) =      2.30442  eV     1   --> A'             
     e(  6 -  6) =      2.98884  eV     1   --> A''            
     e(  7 -  7) =      3.13600  eV     1   --> A'             
     e(  8 -  8) =      4.12560  eV     1   --> A''            
     e(  9 -  9) =      4.56464  eV     1   --> A'             
     e( 10 - 10) =      6.03554  eV     1   --> A''            

 **************************************************************************

 **************************************************************************

                    xk=(   0.13333,   0.23077,   0.00000  )

     Band symmetry, C_s (m)     point group:

     e(  1 -  1) =    -20.65611  eV     1   --> A'             
     e(  2 -  2) =     -8.89040  eV     1   --> A'             
     e(  3 -  3) =     -8.50215  eV     1   --> A''            
     e(  4 -  4) =     -7.75874  eV     1   --> A'             
     e(  5 -  5) =      2.57902  eV     1   --> A'             
     e(  6 -  6) =      3.26616  eV     1   --> A''            
     e(  7 -  7) =      3.41661  eV     1   --> A'             
     e(  8 -  8) =      4.40175  eV     1   --> A''            
     e(  9 -  9) =      4.84271  eV     1   --> A'             
     e( 10 - 10) =      5.55912  eV     1   --> A''            

 **************************************************************************

 **************************************************************************

                    xk=(   0.14444,   0.25000,   0.00000  )

     Band symmetry, C_s (m)     point group:

     e(  1 -  1) =    -20.44055  eV     1   --> A'             
     e(  2 -  2) =     -9.30531  eV     1   --> A'             
     e(  3 -  3) =     -8.24950  eV     1   --> A''            
     e(  4 -  4) =     -8.09585  eV     1   --> A'             
     e(  5 -  5) =      2.87731  eV     1   --> A'             
     e(  6 -  6) =      3.56717  eV     1   --> A''            
     e(  7 -  7) =      3.72160  eV     1   --> A'             
     e(  8 -  8) =      4.70139  eV     1   --> A''            
     e(  9 -  9) =      5.07181  eV     1   --> A''            
     e( 10 - 10) =      5.14491  eV     1   --> A'             

 **************************************************************************

 **************************************************************************

                    xk=(   0.15556,   0.26923,   0.00000  )

     Band symmetry, C_s (m)     point group:

     e(  1 -  1) =    -20.20850  eV     1   --> A'             
     e(  2 -  2) =     -9.71756  eV     1   --> A'             
     e(  3 -  3) =     -8.44050  eV     1   --> A'             
     e(  4 -  4) =     -7.97888  eV     1   --> A''            
     e(  5 -  5) =      3.19920  eV     1   --> A'             
     e(  6 -  6) =      3.89167  eV     1   --> A''            
     e(  7 -  7) =      4.05098  eV     1   --> A'             
     e(  8 -  8) =      4.57760  eV     1   --> A''            
     e(  9 -  9) =      5.02432  eV     1   --> A''            
     e( 10 - 10) =      5.47119  eV     1   --> A'             

 **************************************************************************

 **************************************************************************

                    xk=(   0.16667,   0.28846,   0.00000  )

     Band symmetry, C_s (m)     point group:

     e(  1 -  1) =    -19.96019  eV     1   --> A'             
     e(  2 -  2) =    -10.12505  eV     1   --> A'             
     e(  3 -  3) =     -8.79002  eV     1   --> A'             
     e(  4 -  4) =     -7.69095  eV     1   --> A''            
     e(  5 -  5) =      3.54458  eV     1   --> A'             
     e(  6 -  6) =      4.08006  eV     1   --> A''            
     e(  7 -  7) =      4.23943  eV     1   --> A''            
     e(  8 -  8) =      4.40473  eV     1   --> A'             
     e(  9 -  9) =      5.37020  eV     1   --> A''            
     e( 10 - 10) =      5.82150  eV     1   --> A'             

 **************************************************************************

 **************************************************************************

                    xk=(   0.17778,   0.30769,   0.00000  )

     Band symmetry, C_s (m)     point group:

     e(  1 -  1) =    -19.69590  eV     1   --> A'             
     e(  2 -  2) =    -10.52603  eV     1   --> A'             
     e(  3 -  3) =     -9.14196  eV     1   --> A'             
     e(  4 -  4) =     -7.38648  eV     1   --> A''            
     e(  5 -  5) =      3.58240  eV     1   --> A''            
     e(  6 -  6) =      3.91333  eV     1   --> A'             
     e(  7 -  7) =      4.61002  eV     1   --> A''            
     e(  8 -  8) =      4.78285  eV     1   --> A'             
     e(  9 -  9) =      5.73860  eV     1   --> A''            
     e( 10 - 10) =      6.19576  eV     1   --> A'             

 **************************************************************************

 **************************************************************************

                    xk=(   0.18889,   0.32692,   0.00000  )

     Band symmetry, C_s (m)     point group:

     e(  1 -  1) =    -19.41593  eV     1   --> A'             
     e(  2 -  2) =    -10.91907  eV     1   --> A'             
     e(  3 -  3) =     -9.49401  eV     1   --> A'             
     e(  4 -  4) =     -7.06640  eV     1   --> A''            
     e(  5 -  5) =      3.08735  eV     1   --> A''            
     e(  6 -  6) =      4.30526  eV     1   --> A'             
     e(  7 -  7) =      5.00293  eV     1   --> A''            
     e(  8 -  8) =      5.18531  eV     1   --> A'             
     e(  9 -  9) =      6.12887  eV     1   --> A''            
     e( 10 - 10) =      6.59385  eV     1   --> A'             

 **************************************************************************

 **************************************************************************

                    xk=(   0.20000,   0.34615,   0.00000  )

     Band symmetry, C_s (m)     point group:

     e(  1 -  1) =    -19.12069  eV     1   --> A'             
     e(  2 -  2) =    -11.30300  eV     1   --> A'             
     e(  3 -  3) =     -9.84404  eV     1   --> A'             
     e(  4 -  4) =     -6.73176  eV     1   --> A''            
     e(  5 -  5) =      2.59738  eV     1   --> A''            
     e(  6 -  6) =      4.72015  eV     1   --> A'             
     e(  7 -  7) =      5.41731  eV     1   --> A''            
     e(  8 -  8) =      5.61209  eV     1   --> A'             
     e(  9 -  9) =      6.54000  eV     1   --> A''            
     e( 10 - 10) =      7.01564  eV     1   --> A'             

 **************************************************************************

 **************************************************************************

                    xk=(   0.21111,   0.36538,   0.00000  )

     Band symmetry, C_s (m)     point group:

     e(  1 -  1) =    -18.81064  eV     1   --> A'             
     e(  2 -  2) =    -11.67683  eV     1   --> A'             
     e(  3 -  3) =    -10.19005  eV     1   --> A'             
     e(  4 -  4) =     -6.38380  eV     1   --> A''            
     e(  5 -  5) =      2.11462  eV     1   --> A''            
     e(  6 -  6) =      5.15770  eV     1   --> A'             
     e(  7 -  7) =      5.85177  eV     1   --> A''            
     e(  8 -  8) =      6.06316  eV     1   --> A'             
     e(  9 -  9) =      6.97038  eV     1   --> A''            
     e( 10 - 10) =      7.46090  eV     1   --> A'             

 **************************************************************************

 **************************************************************************

                    xk=(   0.22222,   0.38462,   0.00000  )

     Band symmetry, C_s (m)     point group:

     e(  1 -  1) =    -18.48638  eV     1   --> A'             
     e(  2 -  2) =    -12.03976  eV     1   --> A'             
     e(  3 -  3) =    -10.53015  eV     1   --> A'             
     e(  4 -  4) =     -6.02402  eV     1   --> A''            
     e(  5 -  5) =      1.64092  eV     1   --> A''            
     e(  6 -  6) =      5.61748  eV     1   --> A'             
     e(  7 -  7) =      6.30395  eV     1   --> A''            
     e(  8 -  8) =      6.53849  eV     1   --> A'             
     e(  9 -  9) =      7.41730  eV     1   --> A''            
     e( 10 - 10) =      7.92930  eV     1   --> A'             

 **************************************************************************

 **************************************************************************

                    xk=(   0.23333,   0.40385,   0.00000  )

     Band symmetry, C_s (m)     point group:

     e(  1 -  1) =    -18.14865  eV     1   --> A'             
     e(  2 -  2) =    -12.39109  eV     1   --> A'             
     e(  3 -  3) =    -10.86248  eV     1   --> A'             
     e(  4 -  4) =     -5.65413  eV     1   --> A''            
     e(  5 -  5) =      1.17793  eV     1   --> A''            
     e(  6 -  6) =      6.09894  eV     1   --> A'             
     e(  7 -  7) =      6.76944  eV     1   --> A''            
     e(  8 -  8) =      7.03800  eV     1   --> A'             
     e(  9 -  9) =      7.87583  eV     1   --> A''            
     e( 10 - 10) =      8.42029  eV     1   --> A'             

 **************************************************************************

 **************************************************************************

                    xk=(   0.24444,   0.42308,   0.00000  )

     Band symmetry, C_s (m)     point group:

     e(  1 -  1) =    -17.79843  eV     1   --> A'             
     e(  2 -  2) =    -12.73028  eV     1   --> A'             
     e(  3 -  3) =    -11.18519  eV     1   --> A'             
     e(  4 -  4) =     -5.27615  eV     1   --> A''            
     e(  5 -  5) =      0.72704  eV     1   --> A''            
     e(  6 -  6) =      6.60124  eV     1   --> A'             
     e(  7 -  7) =      7.23927  eV     1   --> A''            
     e(  8 -  8) =      7.56162  eV     1   --> A'             
     e(  9 -  9) =      8.33675  eV     1   --> A''            
     e( 10 - 10) =      8.93287  eV     1   --> A'             

 **************************************************************************

 **************************************************************************

                    xk=(   0.25556,   0.44231,   0.00000  )

     Band symmetry, C_s (m)     point group:

     e(  1 -  1) =    -17.43702  eV     1   --> A'             
     e(  2 -  2) =    -13.05684  eV     1   --> A'             
     e(  3 -  3) =    -11.49627  eV     1   --> A'             
     e(  4 -  4) =     -4.89248  eV     1   --> A''            
     e(  5 -  5) =      0.28951  eV     1   --> A''            
     e(  6 -  6) =      7.12316  eV     1   --> A'             
     e(  7 -  7) =      7.69360  eV     1   --> A''            
     e(  8 -  8) =      8.10921  eV     1   --> A'             
     e(  9 -  9) =      8.78375  eV     1   --> A''            
     e( 10 - 10) =      9.46478  eV     1   --> A'             

 **************************************************************************

 **************************************************************************

                    xk=(   0.26667,   0.46154,   0.00000  )

     Band symmetry, C_s (m)     point group:

     e(  1 -  1) =    -17.06621  eV     1   --> A'             
     e(  2 -  2) =    -13.37038  eV     1   --> A'             
     e(  3 -  3) =    -11.79343  eV     1   --> A'             
     e(  4 -  4) =     -4.50586  eV     1   --> A''            
     e(  5 -  5) =     -0.13359  eV     1   --> A''            
     e(  6 -  6) =      7.66277  eV     1   --> A'             
     e(  7 -  7) =      8.08823  eV     1   --> A''            
     e(  8 -  8) =      8.68056  eV     1   --> A'             
     e(  9 -  9) =      9.20059  eV     1   --> A''            
     e( 10 - 10) =     10.00906  eV     1   --> A'             

 **************************************************************************

 **************************************************************************

                    xk=(   0.27778,   0.48077,   0.00000  )

     Band symmetry, C_s (m)     point group:

     e(  1 -  1) =    -16.68859  eV     1   --> A'             
     e(  2 -  2) =    -13.67056  eV     1   --> A'             
     e(  3 -  3) =    -12.07377  eV     1   --> A'             
     e(  4 -  4) =     -4.11950  eV     1   --> A''            
     e(  5 -  5) =     -0.54132  eV     1   --> A''            
     e(  6 -  6) =      8.21688  eV     1   --> A'             
     e(  7 -  7) =      8.35115  eV     1   --> A''            
     e(  8 -  8) =      9.27528  eV     1   --> A'             
     e(  9 -  9) =      9.61310  eV     1   --> A''            
     e( 10 - 10) =     10.52865  eV     1   --> A'             

 **************************************************************************

 **************************************************************************

                    xk=(   0.28889,   0.50000,   0.00000  )

     Band symmetry, C_s (m)     point group:

     e(  1 -  1) =    -16.30811  eV     1   --> A'             
     e(  2 -  2) =    -13.95711  eV     1   --> A'             
     e(  3 -  3) =    -12.33324  eV     1   --> A'             
     e(  4 -  4) =     -3.73702  eV     1   --> A''            
     e(  5 -  5) =     -0.93285  eV     1   --> A''            
     e(  6 -  6) =      8.45052  eV     1   --> A''            
     e(  7 -  7) =      8.77983  eV     1   --> A'             
     e(  8 -  8) =      9.89249  eV     1   --> A'             
     e(  9 -  9) =     10.08665  eV     1   --> A''            
     e( 10 - 10) =     10.73284  eV     1   --> A'             

 **************************************************************************

 **************************************************************************

                    xk=(   0.30000,   0.51923,   0.00000  )

     Band symmetry, C_s (m)     point group:

     e(  1 -  1) =    -15.93113  eV     1   --> A'             
     e(  2 -  2) =    -14.22979  eV     1   --> A'             
     e(  3 -  3) =    -12.56561  eV     1   --> A'             
     e(  4 -  4) =     -3.36252  eV     1   --> A''            
     e(  5 -  5) =     -1.30745  eV     1   --> A''            
     e(  6 -  6) =      8.44284  eV     1   --> A''            
     e(  7 -  7) =      9.34076  eV     1   --> A'             
     e(  8 -  8) =     10.52919  eV     1   --> A'             
     e(  9 -  9) =     10.63467  eV     1   --> A''            
     e( 10 - 10) =     10.76664  eV     1   --> A'             

 **************************************************************************

 **************************************************************************

                    xk=(   0.31111,   0.53846,   0.00000  )

     Band symmetry, C_s (m)     point group:

     e(  1 -  1) =    -15.56843  eV     1   --> A'             
     e(  2 -  2) =    -14.48840  eV     1   --> A'             
     e(  3 -  3) =    -12.76044  eV     1   --> A'             
     e(  4 -  4) =     -3.00044  eV     1   --> A''            
     e(  5 -  5) =     -1.66447  eV     1   --> A''            
     e(  6 -  6) =      8.39680  eV     1   --> A''            
     e(  7 -  7) =      9.87645  eV     1   --> A'             
     e(  8 -  8) =     10.75864  eV     1   --> A'             
     e(  9 -  9) =     11.10648  eV     1   --> A'             
     e( 10 - 10) =     11.23400  eV     1   -->   ?

 **************************************************************************

 **************************************************************************

                    xk=(   0.32222,   0.55769,   0.00000  )

     Band symmetry, C_s (m)     point group:

     e(  1 -  1) =    -15.23876  eV     1   --> A'             
     e(  2 -  2) =    -14.73274  eV     1   --> A'             
     e(  3 -  3) =    -12.89962  eV     1   --> A'             
     e(  4 -  4) =     -2.65547  eV     1   --> A''            
     e(  5 -  5) =     -2.00336  eV     1   --> A''            
     e(  6 -  6) =      8.35407  eV     1   --> A''            
     e(  7 -  7) =     10.33234  eV     1   --> A'             
     e(  8 -  8) =     10.70425  eV     1   --> A'             
     e(  9 -  9) =     11.17391  eV     1   --> A'             
     e( 10 - 10) =     11.85787  eV     1   --> A''            

 **************************************************************************

 **************************************************************************

                    xk=(   0.33333,   0.57692,   0.00000  )

     Band symmetry, C_s (m)     point group:

     e(  1 -  1) =    -14.97674  eV     1   --> A'             
     e(  2 -  2) =    -14.95831  eV     1   --> A'             
     e(  3 -  3) =    -12.95378  eV     1   --> A'             
     e(  4 -  4) =     -2.33633  eV     1   --> A''            
     e(  5 -  5) =     -2.31957  eV     1   --> A''            
     e(  6 -  6) =      8.33692  eV     1   --> A''            
     e(  7 -  7) =     10.58816  eV     1   --> A'             
     e(  8 -  8) =     10.60932  eV     1   --> A'             
     e(  9 -  9) =     11.17662  eV     1   --> A'             
     e( 10 - 10) =     12.41126  eV     1   --> A''            

 **************************************************************************

 **************************************************************************

                    xk=(   0.33889,   0.56731,   0.00000  )

     Band symmetry, C_s (m)     point group:

     e(  1 -  1) =    -15.07282  eV     1   --> A'             
     e(  2 -  2) =    -14.87388  eV     1   --> A'             
     e(  3 -  3) =    -12.93778  eV     1   --> A'             
     e(  4 -  4) =     -2.47698  eV     1   --> A''            
     e(  5 -  5) =     -2.17988  eV     1   --> A''            
     e(  6 -  6) =      8.34189  eV     1   --> A''            
     e(  7 -  7) =     10.53789  eV     1   --> A'             
     e(  8 -  8) =     10.62063  eV     1   --> A'             
     e(  9 -  9) =     11.16802  eV     1   --> A'             
     e( 10 - 10) =     12.23880  eV     1   --> A''            

 **************************************************************************

 **************************************************************************

                    xk=(   0.34444,   0.55769,   0.00000  )

     Band symmetry, C_s (m)     point group:

     e(  1 -  1) =    -15.17863  eV     1   --> A'             
     e(  2 -  2) =    -14.80426  eV     1   --> A'             
     e(  3 -  3) =    -12.88865  eV     1   --> A'             
     e(  4 -  4) =     -2.62513  eV     1   --> A''            
     e(  5 -  5) =     -2.03491  eV     1   --> A''            
     e(  6 -  6) =      8.35713  eV     1   --> A''            
     e(  7 -  7) =     10.46506  eV     1   --> A'             
     e(  8 -  8) =     10.59000  eV     1   --> A'             
     e(  9 -  9) =     11.12734  eV     1   --> A'             
     e( 10 - 10) =     12.06673  eV     1   --> A''            

 **************************************************************************

 **************************************************************************

                    xk=(   0.35000,   0.54808,   0.00000  )

     Band symmetry, C_s (m)     point group:

     e(  1 -  1) =    -15.28090  eV     1   --> A'             
     e(  2 -  2) =    -14.76318  eV     1   --> A'             
     e(  3 -  3) =    -12.80613  eV     1   --> A'             
     e(  4 -  4) =     -2.76848  eV     1   --> A''            
     e(  5 -  5) =     -1.89733  eV     1   --> A''            
     e(  6 -  6) =      8.38313  eV     1   --> A''            
     e(  7 -  7) =     10.38527  eV     1   --> A'             
     e(  8 -  8) =     10.52204  eV     1   --> A'             
     e(  9 -  9) =     11.03858  eV     1   --> A'             
     e( 10 - 10) =     11.90061  eV     1   --> A''            

 **************************************************************************

 **************************************************************************

                    xk=(   0.35556,   0.53846,   0.00000  )

     Band symmetry, C_s (m)     point group:

     e(  1 -  1) =    -15.37954  eV     1   --> A'             
     e(  2 -  2) =    -14.74830  eV     1   --> A'             
     e(  3 -  3) =    -12.69290  eV     1   --> A'             
     e(  4 -  4) =     -2.90694  eV     1   --> A''            
     e(  5 -  5) =     -1.76755  eV     1   --> A''            
     e(  6 -  6) =      8.42009  eV     1   --> A''            
     e(  7 -  7) =     10.30023  eV     1   --> A'             
     e(  8 -  8) =     10.42779  eV     1   --> A'             
     e(  9 -  9) =     10.90270  eV     1   --> A'             
     e( 10 - 10) =     11.74047  eV     1   --> A''            

 **************************************************************************

 **************************************************************************

                    xk=(   0.36111,   0.52885,   0.00000  )

     Band symmetry, C_s (m)     point group:

     e(  1 -  1) =    -15.47453  eV     1   --> A'             
     e(  2 -  2) =    -14.75521  eV     1   --> A'             
     e(  3 -  3) =    -12.55365  eV     1   --> A'             
     e(  4 -  4) =     -3.04048  eV     1   --> A''            
     e(  5 -  5) =     -1.64584  eV     1   --> A''            
     e(  6 -  6) =      8.46790  eV     1   --> A''            
     e(  7 -  7) =     10.21139  eV     1   --> A'             
     e(  8 -  8) =     10.30971  eV     1   --> A'             
     e(  9 -  9) =     10.73324  eV     1   --> A'             
     e( 10 - 10) =     11.58632  eV     1   --> A''            

 **************************************************************************

 **************************************************************************

                    xk=(   0.36667,   0.51923,   0.00000  )

     Band symmetry, C_s (m)     point group:

     e(  1 -  1) =    -15.56585  eV     1   --> A'             
     e(  2 -  2) =    -14.77890  eV     1   --> A'             
     e(  3 -  3) =    -12.39372  eV     1   --> A'             
     e(  4 -  4) =     -3.16904  eV     1   --> A''            
     e(  5 -  5) =     -1.53240  eV     1   --> A''            
     e(  6 -  6) =      8.52615  eV     1   --> A''            
     e(  7 -  7) =     10.11946  eV     1   --> A'             
     e(  8 -  8) =     10.16214  eV     1   --> A'             
     e(  9 -  9) =     10.55163  eV     1   --> A'             
     e( 10 - 10) =     11.43817  eV     1   --> A''            

 **************************************************************************

 **************************************************************************

                    xk=(   0.37222,   0.50962,   0.00000  )

     Band symmetry, C_s (m)     point group:

     e(  1 -  1) =    -15.65349  eV     1   --> A'             
     e(  2 -  2) =    -14.81473  eV     1   --> A'             
     e(  3 -  3) =    -12.21808  eV     1   --> A'             
     e(  4 -  4) =     -3.29260  eV     1   --> A''            
     e(  5 -  5) =     -1.42733  eV     1   --> A''            
     e(  6 -  6) =      8.59413  eV     1   --> A''            
     e(  7 -  7) =      9.96961  eV     1   --> A'             
     e(  8 -  8) =     10.02980  eV     1   --> A'             
     e(  9 -  9) =     10.38168  eV     1   --> A'             
     e( 10 - 10) =     11.29602  eV     1   --> A''            

 **************************************************************************

 **************************************************************************

                    xk=(   0.37778,   0.50000,   0.00000  )

     Band symmetry, C_s (m)     point group:

     e(  1 -  1) =    -15.73744  eV     1   --> A'             
     e(  2 -  2) =    -14.85891  eV     1   --> A'             
     e(  3 -  3) =    -12.03092  eV     1   --> A'             
     e(  4 -  4) =     -3.41111  eV     1   --> A''            
     e(  5 -  5) =     -1.33062  eV     1   --> A''            
     e(  6 -  6) =      8.67079  eV     1   --> A''            
     e(  7 -  7) =      9.73676  eV     1   --> A'             
     e(  8 -  8) =      9.93668  eV     1   --> A'             
     e(  9 -  9) =     10.23534  eV     1   --> A'             
     e( 10 - 10) =     11.15988  eV     1   --> A''            

 **************************************************************************

 **************************************************************************

                    xk=(   0.38333,   0.49038,   0.00000  )

     Band symmetry, C_s (m)     point group:

     e(  1 -  1) =    -15.81770  eV     1   --> A'             
     e(  2 -  2) =    -14.90851  eV     1   --> A'             
     e(  3 -  3) =    -11.83561  eV     1   --> A'             
     e(  4 -  4) =     -3.52455  eV     1   --> A''            
     e(  5 -  5) =     -1.24219  eV     1   --> A''            
     e(  6 -  6) =      8.75475  eV     1   --> A''            
     e(  7 -  7) =      9.47120  eV     1   --> A'             
     e(  8 -  8) =      9.84490  eV     1   --> A'             
     e(  9 -  9) =     10.10871  eV     1   --> A'             
     e( 10 - 10) =     11.02977  eV     1   --> A''            

 **************************************************************************

 **************************************************************************

                    xk=(   0.38889,   0.48077,   0.00000  )

     Band symmetry, C_s (m)     point group:

     e(  1 -  1) =    -15.89426  eV     1   --> A'             
     e(  2 -  2) =    -14.96133  eV     1   --> A'             
     e(  3 -  3) =    -11.63483  eV     1   --> A'             
     e(  4 -  4) =     -3.63288  eV     1   --> A''            
     e(  5 -  5) =     -1.16184  eV     1   --> A''            
     e(  6 -  6) =      8.84429  eV     1   --> A''            
     e(  7 -  7) =      9.18640  eV     1   --> A'             
     e(  8 -  8) =      9.75468  eV     1   --> A'             
     e(  9 -  9) =      9.99474  eV     1   --> A'             
     e( 10 - 10) =     10.90567  eV     1   --> A''            

 **************************************************************************

 **************************************************************************

                    xk=(   0.39444,   0.47115,   0.00000  )

     Band symmetry, C_s (m)     point group:

     e(  1 -  1) =    -15.96711  eV     1   --> A'             
     e(  2 -  2) =    -15.01573  eV     1   --> A'             
     e(  3 -  3) =    -11.43076  eV     1   --> A'             
     e(  4 -  4) =     -3.73609  eV     1   --> A''            
     e(  5 -  5) =     -1.08932  eV     1   --> A''            
     e(  6 -  6) =      8.89132  eV     1   --> A'             
     e(  7 -  7) =      8.93731  eV     1   --> A''            
     e(  8 -  8) =      9.66659  eV     1   --> A'             
     e(  9 -  9) =      9.88925  eV     1   --> A'             
     e( 10 - 10) =     10.78760  eV     1   --> A''            

 **************************************************************************

 **************************************************************************

                    xk=(   0.40000,   0.46154,   0.00000  )

     Band symmetry, C_s (m)     point group:

     e(  1 -  1) =    -16.03625  eV     1   --> A'             
     e(  2 -  2) =    -15.07048  eV     1   --> A'             
     e(  3 -  3) =    -11.22521  eV     1   --> A'             
     e(  4 -  4) =     -3.83414  eV     1   --> A''            
     e(  5 -  5) =     -1.02428  eV     1   --> A''            
     e(  6 -  6) =      8.59179  eV     1   --> A'             
     e(  7 -  7) =      9.03142  eV     1   --> A''            
     e(  8 -  8) =      9.58113  eV     1   --> A'             
     e(  9 -  9) =      9.79023  eV     1   --> A'             
     e( 10 - 10) =     10.67557  eV     1   --> A''            

 **************************************************************************

 **************************************************************************

                    xk=(   0.40556,   0.45192,   0.00000  )

     Band symmetry, C_s (m)     point group:

     e(  1 -  1) =    -16.10168  eV     1   --> A'             
     e(  2 -  2) =    -15.12469  eV     1   --> A'             
     e(  3 -  3) =    -11.01975  eV     1   --> A'             
     e(  4 -  4) =     -3.92702  eV     1   --> A''            
     e(  5 -  5) =     -0.96633  eV     1   --> A''            
     e(  6 -  6) =      8.29186  eV     1   --> A'             
     e(  7 -  7) =      9.12396  eV     1   --> A''            
     e(  8 -  8) =      9.49874  eV     1   --> A'             
     e(  9 -  9) =      9.69681  eV     1   --> A'             
     e( 10 - 10) =     10.56957  eV     1   --> A''            

 **************************************************************************

 **************************************************************************

                    xk=(   0.41111,   0.44231,   0.00000  )

     Band symmetry, C_s (m)     point group:

     e(  1 -  1) =    -16.16339  eV     1   --> A'             
     e(  2 -  2) =    -15.17765  eV     1   --> A'             
     e(  3 -  3) =    -10.81580  eV     1   --> A'             
     e(  4 -  4) =     -4.01469  eV     1   --> A''            
     e(  5 -  5) =     -0.91504  eV     1   --> A''            
     e(  6 -  6) =      7.99463  eV     1   --> A'             
     e(  7 -  7) =      9.21213  eV     1   --> A''            
     e(  8 -  8) =      9.41978  eV     1   --> A'             
     e(  9 -  9) =      9.60860  eV     1   --> A'             
     e( 10 - 10) =     10.46961  eV     1   --> A''            

 **************************************************************************

 **************************************************************************

                    xk=(   0.41667,   0.43269,   0.00000  )

     Band symmetry, C_s (m)     point group:

     e(  1 -  1) =    -16.22137  eV     1   --> A'             
     e(  2 -  2) =    -15.22884  eV     1   --> A'             
     e(  3 -  3) =    -10.61466  eV     1   --> A'             
     e(  4 -  4) =     -4.09715  eV     1   --> A''            
     e(  5 -  5) =     -0.86994  eV     1   --> A''            
     e(  6 -  6) =      7.70261  eV     1   --> A'             
     e(  7 -  7) =      9.29321  eV     1   --> A''            
     e(  8 -  8) =      9.34457  eV     1   --> A'             
     e(  9 -  9) =      9.52549  eV     1   --> A'             
     e( 10 - 10) =     10.37569  eV     1   --> A''            

 **************************************************************************

 **************************************************************************

                    xk=(   0.42222,   0.42308,   0.00000  )

     Band symmetry, C_s (m)     point group:

     e(  1 -  1) =    -16.27562  eV     1   --> A'             
     e(  2 -  2) =    -15.27784  eV     1   --> A'             
     e(  3 -  3) =    -10.41763  eV     1   --> A'             
     e(  4 -  4) =     -4.17436  eV     1   --> A''            
     e(  5 -  5) =     -0.83054  eV     1   --> A''            
     e(  6 -  6) =      7.41800  eV     1   --> A'             
     e(  7 -  7) =      9.27335  eV     1   --> A'             
     e(  8 -  8) =      9.36479  eV     1   --> A''            
     e(  9 -  9) =      9.44743  eV     1   --> A'             
     e( 10 - 10) =     10.28782  eV     1   --> A''            

 **************************************************************************

 **************************************************************************

                    xk=(   0.42778,   0.41346,   0.00000  )

     Band symmetry, C_s (m)     point group:

     e(  1 -  1) =    -16.32615  eV     1   --> A'             
     e(  2 -  2) =    -15.32434  eV     1   --> A'             
     e(  3 -  3) =    -10.22596  eV     1   --> A'             
     e(  4 -  4) =     -4.24632  eV     1   --> A''            
     e(  5 -  5) =     -0.79635  eV     1   --> A''            
     e(  6 -  6) =      7.14275  eV     1   --> A'             
     e(  7 -  7) =      9.20635  eV     1   --> A'             
     e(  8 -  8) =      9.37447  eV     1   --> A'             
     e(  9 -  9) =      9.42510  eV     1   --> A''            
     e( 10 - 10) =     10.20600  eV     1   --> A''            

 **************************************************************************

 **************************************************************************

                    xk=(   0.43333,   0.40385,   0.00000  )

     Band symmetry, C_s (m)     point group:

     e(  1 -  1) =    -16.37294  eV     1   --> A'             
     e(  2 -  2) =    -15.36807  eV     1   --> A'             
     e(  3 -  3) =    -10.04091  eV     1   --> A'             
     e(  4 -  4) =     -4.31302  eV     1   --> A''            
     e(  5 -  5) =     -0.76688  eV     1   --> A''            
     e(  6 -  6) =      6.87870  eV     1   --> A'             
     e(  7 -  7) =      9.14376  eV     1   --> A'             
     e(  8 -  8) =      9.30665  eV     1   --> A'             
     e(  9 -  9) =      9.47322  eV     1   --> A''            
     e( 10 - 10) =     10.13023  eV     1   --> A''            

 **************************************************************************

 **************************************************************************

                    xk=(   0.43889,   0.39423,   0.00000  )

     Band symmetry, C_s (m)     point group:

     e(  1 -  1) =    -16.41600  eV     1   --> A'             
     e(  2 -  2) =    -15.40883  eV     1   --> A'             
     e(  3 -  3) =     -9.86377  eV     1   --> A'             
     e(  4 -  4) =     -4.37442  eV     1   --> A''            
     e(  5 -  5) =     -0.74165  eV     1   --> A''            
     e(  6 -  6) =      6.62760  eV     1   --> A'             
     e(  7 -  7) =      9.08572  eV     1   --> A'             
     e(  8 -  8) =      9.24403  eV     1   --> A'             
     e(  9 -  9) =      9.50925  eV     1   --> A''            
     e( 10 - 10) =     10.06052  eV     1   --> A''            

 **************************************************************************

 **************************************************************************

                    xk=(   0.44444,   0.38462,   0.00000  )

     Band symmetry, C_s (m)     point group:

     e(  1 -  1) =    -16.45532  eV     1   --> A'             
     e(  2 -  2) =    -15.44645  eV     1   --> A'             
     e(  3 -  3) =     -9.69583  eV     1   --> A'             
     e(  4 -  4) =     -4.43053  eV     1   --> A''            
     e(  5 -  5) =     -0.72023  eV     1   --> A''            
     e(  6 -  6) =      6.39112  eV     1   --> A'             
     e(  7 -  7) =      9.03238  eV     1   --> A'             
     e(  8 -  8) =      9.18667  eV     1   --> A'             
     e(  9 -  9) =      9.53418  eV     1   --> A''            
     e( 10 - 10) =      9.99686  eV     1   --> A''            

 **************************************************************************

 **************************************************************************

                    xk=(   0.45000,   0.37500,   0.00000  )

     Band symmetry, C_s (m)     point group:

     e(  1 -  1) =    -16.49090  eV     1   --> A'             
     e(  2 -  2) =    -15.48081  eV     1   --> A'             
     e(  3 -  3) =     -9.53842  eV     1   --> A'             
     e(  4 -  4) =     -4.48133  eV     1   --> A''            
     e(  5 -  5) =     -0.70217  eV     1   --> A''            
     e(  6 -  6) =      6.17090  eV     1   --> A'             
     e(  7 -  7) =      8.98383  eV     1   --> A'             
     e(  8 -  8) =      9.13461  eV     1   --> A'             
     e(  9 -  9) =      9.54961  eV     1   --> A''            
     e( 10 - 10) =      9.93926  eV     1   --> A''            

 **************************************************************************

 **************************************************************************

                    xk=(   0.45556,   0.36538,   0.00000  )

     Band symmetry, C_s (m)     point group:

     e(  1 -  1) =    -16.52273  eV     1   --> A'             
     e(  2 -  2) =    -15.51179  eV     1   --> A'             
     e(  3 -  3) =     -9.39288  eV     1   --> A'             
     e(  4 -  4) =     -4.52681  eV     1   --> A''            
     e(  5 -  5) =     -0.68710  eV     1   --> A''            
     e(  6 -  6) =      5.96855  eV     1   --> A'             
     e(  7 -  7) =      8.94018  eV     1   --> A'             
     e(  8 -  8) =      9.08791  eV     1   --> A'             
     e(  9 -  9) =      9.55752  eV     1   --> A''            
     e( 10 - 10) =      9.88771  eV     1   --> A''            

 **************************************************************************

 **************************************************************************

                    xk=(   0.46111,   0.35577,   0.00000  )

     Band symmetry, C_s (m)     point group:

     e(  1 -  1) =    -16.55083  eV     1   --> A'             
     e(  2 -  2) =    -15.53930  eV     1   --> A'             
     e(  3 -  3) =     -9.26052  eV     1   --> A'             
     e(  4 -  4) =     -4.56696  eV     1   --> A''            
     e(  5 -  5) =     -0.67465  eV     1   --> A''            
     e(  6 -  6) =      5.78561  eV     1   --> A'             
     e(  7 -  7) =      8.90150  eV     1   --> A'             
     e(  8 -  8) =      9.04661  eV     1   --> A'             
     e(  9 -  9) =      9.55987  eV     1   --> A''            
     e( 10 - 10) =      9.84223  eV     1   --> A''            

 **************************************************************************

 **************************************************************************

                    xk=(   0.46667,   0.34615,   0.00000  )

     Band symmetry, C_s (m)     point group:

     e(  1 -  1) =    -16.57518  eV     1   --> A'             
     e(  2 -  2) =    -15.56327  eV     1   --> A'             
     e(  3 -  3) =     -9.14264  eV     1   --> A'             
     e(  4 -  4) =     -4.60177  eV     1   --> A''            
     e(  5 -  5) =     -0.66451  eV     1   --> A''            
     e(  6 -  6) =      5.62355  eV     1   --> A'             
     e(  7 -  7) =      8.86786  eV     1   --> A'             
     e(  8 -  8) =      9.01075  eV     1   --> A'             
     e(  9 -  9) =      9.55850  eV     1   --> A''            
     e( 10 - 10) =      9.80281  eV     1   --> A''            

 **************************************************************************

 **************************************************************************

                    xk=(   0.47222,   0.33654,   0.00000  )

     Band symmetry, C_s (m)     point group:

     e(  1 -  1) =    -16.59579  eV     1   --> A'             
     e(  2 -  2) =    -15.58364  eV     1   --> A'             
     e(  3 -  3) =     -9.04047  eV     1   --> A'             
     e(  4 -  4) =     -4.63124  eV     1   --> A''            
     e(  5 -  5) =     -0.65640  eV     1   --> A''            
     e(  6 -  6) =      5.48375  eV     1   --> A'             
     e(  7 -  7) =      8.83931  eV     1   --> A'             
     e(  8 -  8) =      8.98035  eV     1   --> A'             
     e(  9 -  9) =      9.55495  eV     1   --> A''            
     e( 10 - 10) =      9.76945  eV     1   --> A''            

 **************************************************************************

 **************************************************************************

                    xk=(   0.47778,   0.32692,   0.00000  )

     Band symmetry, C_s (m)     point group:

     e(  1 -  1) =    -16.61265  eV     1   --> A'             
     e(  2 -  2) =    -15.60037  eV     1   --> A'             
     e(  3 -  3) =     -8.95514  eV     1   --> A'             
     e(  4 -  4) =     -4.65536  eV     1   --> A''            
     e(  5 -  5) =     -0.65009  eV     1   --> A''            
     e(  6 -  6) =      5.36748  eV     1   --> A'             
     e(  7 -  7) =      8.81589  eV     1   --> A'             
     e(  8 -  8) =      8.95545  eV     1   --> A'             
     e(  9 -  9) =      9.55049  eV     1   --> A''            
     e( 10 - 10) =      9.74215  eV     1   --> A''            

 **************************************************************************

 **************************************************************************

                    xk=(   0.48333,   0.31731,   0.00000  )

     Band symmetry, C_s (m)     point group:

     e(  1 -  1) =    -16.62577  eV     1   --> A'             
     e(  2 -  2) =    -15.61342  eV     1   --> A'             
     e(  3 -  3) =     -8.88764  eV     1   --> A'             
     e(  4 -  4) =     -4.67413  eV     1   --> A''            
     e(  5 -  5) =     -0.64538  eV     1   --> A''            
     e(  6 -  6) =      5.27582  eV     1   --> A'             
     e(  7 -  7) =      8.79765  eV     1   --> A'             
     e(  8 -  8) =      8.93606  eV     1   --> A'             
     e(  9 -  9) =      9.54609  eV     1   --> A''            
     e( 10 - 10) =      9.72092  eV     1   --> A''            

 **************************************************************************

 **************************************************************************

                    xk=(   0.48889,   0.30769,   0.00000  )

     Band symmetry, C_s (m)     point group:

     e(  1 -  1) =    -16.63514  eV     1   --> A'             
     e(  2 -  2) =    -15.62276  eV     1   --> A'             
     e(  3 -  3) =     -8.83880  eV     1   --> A'             
     e(  4 -  4) =     -4.68753  eV     1   --> A''            
     e(  5 -  5) =     -0.64212  eV     1   --> A''            
     e(  6 -  6) =      5.20967  eV     1   --> A'             
     e(  7 -  7) =      8.78459  eV     1   --> A'             
     e(  8 -  8) =      8.92220  eV     1   --> A'             
     e(  9 -  9) =      9.54247  eV     1   --> A''            
     e( 10 - 10) =      9.70576  eV     1   --> A''            

 **************************************************************************

 **************************************************************************

                    xk=(   0.49444,   0.29808,   0.00000  )

     Band symmetry, C_s (m)     point group:

     e(  1 -  1) =    -16.64076  eV     1   --> A'             
     e(  2 -  2) =    -15.62837  eV     1   --> A'             
     e(  3 -  3) =     -8.80925  eV     1   --> A'             
     e(  4 -  4) =     -4.69558  eV     1   --> A''            
     e(  5 -  5) =     -0.64021  eV     1   --> A''            
     e(  6 -  6) =      5.16971  eV     1   --> A'             
     e(  7 -  7) =      8.77676  eV     1   --> A'             
     e(  8 -  8) =      8.91387  eV     1   --> A'             
     e(  9 -  9) =      9.54010  eV     1   --> A''            
     e( 10 - 10) =      9.69666  eV     1   --> A''            

 **************************************************************************

 **************************************************************************

                    xk=(   0.50000,   0.28846,   0.00000  )

     Band symmetry, C_s (m)     point group:

     e(  1 -  1) =    -16.64263  eV     1   --> A'             
     e(  2 -  2) =    -15.63024  eV     1   --> A'             
     e(  3 -  3) =     -8.79935  eV     1   --> A'             
     e(  4 -  4) =     -4.69826  eV     1   --> A''            
     e(  5 -  5) =     -0.63958  eV     1   --> A''            
     e(  6 -  6) =      5.15634  eV     1   --> A'             
     e(  7 -  7) =      8.77414  eV     1   --> A'             
     e(  8 -  8) =      8.91110  eV     1   --> A'             
     e(  9 -  9) =      9.53929  eV     1   --> A''            
     e( 10 - 10) =      9.69362  eV     1   --> A''            

 **************************************************************************

 **************************************************************************

                    xk=(   0.48333,   0.27885,   0.00000  )

     Band symmetry, C_s (m)     point group:

     e(  1 -  1) =    -16.75767  eV     1   --> A'             
     e(  2 -  2) =    -15.50538  eV     1   --> A'             
     e(  3 -  3) =     -8.79275  eV     1   --> A'             
     e(  4 -  4) =     -4.74157  eV     1   --> A''            
     e(  5 -  5) =     -0.58598  eV     1   --> A''            
     e(  6 -  6) =      5.15964  eV     1   --> A'             
     e(  7 -  7) =      8.32945  eV     1   --> A'             
     e(  8 -  8) =      9.09902  eV     1   --> A''            
     e(  9 -  9) =      9.34301  eV     1   --> A'             
     e( 10 - 10) =      9.38320  eV     1   --> A'             

 **************************************************************************

 **************************************************************************

                    xk=(   0.46667,   0.26923,   0.00000  )

     Band symmetry, C_s (m)     point group:

     e(  1 -  1) =    -17.01067  eV     1   --> A'             
     e(  2 -  2) =    -15.22293  eV     1   --> A'             
     e(  3 -  3) =     -8.77295  eV     1   --> A'             
     e(  4 -  4) =     -4.86492  eV     1   --> A''            
     e(  5 -  5) =     -0.43184  eV     1   --> A''            
     e(  6 -  6) =      5.16947  eV     1   --> A'             
     e(  7 -  7) =      7.83695  eV     1   --> A'             
     e(  8 -  8) =      8.60089  eV     1   --> A''            
     e(  9 -  9) =      8.83624  eV     1   --> A'             
     e( 10 - 10) =      9.70761  eV     1   --> A''            

 **************************************************************************

 **************************************************************************

                    xk=(   0.45000,   0.25962,   0.00000  )

     Band symmetry, C_s (m)     point group:

     e(  1 -  1) =    -17.30702  eV     1   --> A'             
     e(  2 -  2) =    -14.87761  eV     1   --> A'             
     e(  3 -  3) =     -8.74002  eV     1   --> A'             
     e(  4 -  4) =     -5.05225  eV     1   --> A''            
     e(  5 -  5) =     -0.19345  eV     1   --> A''            
     e(  6 -  6) =      5.18564  eV     1   --> A'             
     e(  7 -  7) =      7.35803  eV     1   --> A'             
     e(  8 -  8) =      8.11485  eV     1   --> A''            
     e(  9 -  9) =      8.33371  eV     1   --> A'             
     e( 10 - 10) =      9.22780  eV     1   --> A''            

 **************************************************************************

 **************************************************************************

                    xk=(   0.43333,   0.25000,   0.00000  )

     Band symmetry, C_s (m)     point group:

     e(  1 -  1) =    -17.61346  eV     1   --> A'             
     e(  2 -  2) =    -14.50288  eV     1   --> A'             
     e(  3 -  3) =     -8.69408  eV     1   --> A'             
     e(  4 -  4) =     -5.28509  eV     1   --> A''            
     e(  5 -  5) =      0.11040  eV     1   --> A''            
     e(  6 -  6) =      5.20772  eV     1   --> A'             
     e(  7 -  7) =      6.89479  eV     1   --> A'             
     e(  8 -  8) =      7.64365  eV     1   --> A''            
     e(  9 -  9) =      7.84923  eV     1   --> A'             
     e( 10 - 10) =      8.75978  eV     1   --> A''            

 **************************************************************************

 **************************************************************************

                    xk=(   0.41667,   0.24038,   0.00000  )

     Band symmetry, C_s (m)     point group:

     e(  1 -  1) =    -17.91857  eV     1   --> A'             
     e(  2 -  2) =    -14.11040  eV     1   --> A'             
     e(  3 -  3) =     -8.63527  eV     1   --> A'             
     e(  4 -  4) =     -5.54744  eV     1   --> A''            
     e(  5 -  5) =      0.46316  eV     1   --> A''            
     e(  6 -  6) =      5.23481  eV     1   --> A'             
     e(  7 -  7) =      6.44868  eV     1   --> A'             
     e(  8 -  8) =      7.18836  eV     1   --> A''            
     e(  9 -  9) =      7.38296  eV     1   --> A'             
     e( 10 - 10) =      8.30688  eV     1   --> A''            

 **************************************************************************

 **************************************************************************

                    xk=(   0.40000,   0.23077,   0.00000  )

     Band symmetry, C_s (m)     point group:

     e(  1 -  1) =    -18.21763  eV     1   --> A'             
     e(  2 -  2) =    -13.70525  eV     1   --> A'             
     e(  3 -  3) =     -8.56380  eV     1   --> A'             
     e(  4 -  4) =     -5.82709  eV     1   --> A''            
     e(  5 -  5) =      0.85196  eV     1   --> A''            
     e(  6 -  6) =      5.26423  eV     1   --> A'             
     e(  7 -  7) =      6.02252  eV     1   --> A'             
     e(  8 -  8) =      6.74961  eV     1   --> A''            
     e(  9 -  9) =      6.93500  eV     1   --> A'             
     e( 10 - 10) =      7.87012  eV     1   --> A''            

 **************************************************************************

 **************************************************************************

                    xk=(   0.38333,   0.22115,   0.00000  )

     Band symmetry, C_s (m)     point group:

     e(  1 -  1) =    -18.50832  eV     1   --> A'             
     e(  2 -  2) =    -13.29014  eV     1   --> A'             
     e(  3 -  3) =     -8.47992  eV     1   --> A'             
     e(  4 -  4) =     -6.11528  eV     1   --> A''            
     e(  5 -  5) =      1.26720  eV     1   --> A''            
     e(  6 -  6) =      5.28124  eV     1   --> A'             
     e(  7 -  7) =      5.63088  eV     1   --> A'             
     e(  8 -  8) =      6.32786  eV     1   --> A''            
     e(  9 -  9) =      6.50549  eV     1   --> A'             
     e( 10 - 10) =      7.45005  eV     1   --> A''            

 **************************************************************************

 **************************************************************************

                    xk=(   0.36667,   0.21154,   0.00000  )

     Band symmetry, C_s (m)     point group:

     e(  1 -  1) =    -18.78936  eV     1   --> A'             
     e(  2 -  2) =    -12.86691  eV     1   --> A'             
     e(  3 -  3) =     -8.38395  eV     1   --> A'             
     e(  4 -  4) =     -6.40582  eV     1   --> A''            
     e(  5 -  5) =      1.70164  eV     1   --> A''            
     e(  6 -  6) =      5.13438  eV     1   --> A'             
     e(  7 -  7) =      5.42457  eV     1   --> A'             
     e(  8 -  8) =      5.92347  eV     1   --> A''            
     e(  9 -  9) =      6.09492  eV     1   --> A'             
     e( 10 - 10) =      7.04705  eV     1   --> A''            

 **************************************************************************

 **************************************************************************

                    xk=(   0.35000,   0.20192,   0.00000  )

     Band symmetry, C_s (m)     point group:

     e(  1 -  1) =    -19.05994  eV     1   --> A'             
     e(  2 -  2) =    -12.43697  eV     1   --> A'             
     e(  3 -  3) =     -8.27626  eV     1   --> A'             
     e(  4 -  4) =     -6.69432  eV     1   --> A''            
     e(  5 -  5) =      2.14957  eV     1   --> A''            
     e(  6 -  6) =      4.78663  eV     1   --> A'             
     e(  7 -  7) =      5.43686  eV     1   --> A'             
     e(  8 -  8) =      5.53683  eV     1   --> A''            
     e(  9 -  9) =      5.70660  eV     1   --> A'             
     e( 10 - 10) =      6.66140  eV     1   --> A''            

 **************************************************************************

 **************************************************************************

                    xk=(   0.33333,   0.19231,   0.00000  )

     Band symmetry, C_s (m)     point group:

     e(  1 -  1) =    -19.31951  eV     1   --> A'             
     e(  2 -  2) =    -12.00160  eV     1   --> A'             
     e(  3 -  3) =     -8.15731  eV     1   --> A'             
     e(  4 -  4) =     -6.97764  eV     1   --> A''            
     e(  5 -  5) =      2.60613  eV     1   --> A''            
     e(  6 -  6) =      4.42958  eV     1   --> A'             
     e(  7 -  7) =      5.16850  eV     1   --> A''            
     e(  8 -  8) =      5.31071  eV     1   --> A'             
     e(  9 -  9) =      5.50520  eV     1   --> A'             
     e( 10 - 10) =      6.29338  eV     1   --> A''            

 **************************************************************************

 **************************************************************************

                    xk=(   0.31667,   0.18269,   0.00000  )

     Band symmetry, C_s (m)     point group:

     e(  1 -  1) =    -19.56769  eV     1   --> A'             
     e(  2 -  2) =    -11.56207  eV     1   --> A'             
     e(  3 -  3) =     -8.02763  eV     1   --> A'             
     e(  4 -  4) =     -7.25345  eV     1   --> A''            
     e(  5 -  5) =      3.06631  eV     1   --> A''            
     e(  6 -  6) =      4.08527  eV     1   --> A'             
     e(  7 -  7) =      4.81965  eV     1   --> A''            
     e(  8 -  8) =      4.96206  eV     1   --> A'             
     e(  9 -  9) =      5.55120  eV     1   --> A'             
     e( 10 - 10) =      5.94334  eV     1   --> A''            

 **************************************************************************

 **************************************************************************

                    xk=(   0.30000,   0.17308,   0.00000  )

     Band symmetry, C_s (m)     point group:

     e(  1 -  1) =    -19.80418  eV     1   --> A'             
     e(  2 -  2) =    -11.11967  eV     1   --> A'             
     e(  3 -  3) =     -7.88787  eV     1   --> A'             
     e(  4 -  4) =     -7.52003  eV     1   --> A''            
     e(  5 -  5) =      3.52186  eV     1   --> A''            
     e(  6 -  6) =      3.75688  eV     1   --> A'             
     e(  7 -  7) =      4.49483  eV     1   --> A''            
     e(  8 -  8) =      4.62485  eV     1   --> A'             
     e(  9 -  9) =      5.60259  eV     1   --> A'             
     e( 10 - 10) =      5.61190  eV     1   --> A''            

 **************************************************************************

 **************************************************************************

                    xk=(   0.28333,   0.16346,   0.00000  )

     Band symmetry, C_s (m)     point group:

     e(  1 -  1) =    -20.02875  eV     1   --> A'             
     e(  2 -  2) =    -10.67582  eV     1   --> A'             
     e(  3 -  3) =     -7.77606  eV     1   --> A''            
     e(  4 -  4) =     -7.73874  eV     1   --> A'             
     e(  5 -  5) =      3.44534  eV     1   --> A'             
     e(  6 -  6) =      3.91743  eV     1   --> A''            
     e(  7 -  7) =      4.24466  eV     1   --> A''            
     e(  8 -  8) =      4.30504  eV     1   --> A'             
     e(  9 -  9) =      5.30087  eV     1   --> A''            
     e( 10 - 10) =      5.61092  eV     1   --> A'             

 **************************************************************************

 **************************************************************************

                    xk=(   0.26667,   0.15385,   0.00000  )

     Band symmetry, C_s (m)     point group:

     e(  1 -  1) =    -20.24119  eV     1   --> A'             
     e(  2 -  2) =    -10.23205  eV     1   --> A'             
     e(  3 -  3) =     -8.02051  eV     1   --> A''            
     e(  4 -  4) =     -7.58113  eV     1   --> A'             
     e(  5 -  5) =      3.15104  eV     1   --> A'             
     e(  6 -  6) =      3.82263  eV     1   --> A''            
     e(  7 -  7) =      4.00323  eV     1   --> A'             
     e(  8 -  8) =      4.48567  eV     1   --> A''            
     e(  9 -  9) =      5.02124  eV     1   --> A''            
     e( 10 - 10) =      5.40362  eV     1   --> A'             

 **************************************************************************

 **************************************************************************

                    xk=(   0.25000,   0.14423,   0.00000  )

     Band symmetry, C_s (m)     point group:

     e(  1 -  1) =    -20.44136  eV     1   --> A'             
     e(  2 -  2) =     -9.79009  eV     1   --> A'             
     e(  3 -  3) =     -8.25258  eV     1   --> A''            
     e(  4 -  4) =     -7.41603  eV     1   --> A'             
     e(  5 -  5) =      2.87419  eV     1   --> A'             
     e(  6 -  6) =      3.55881  eV     1   --> A''            
     e(  7 -  7) =      3.71960  eV     1   --> A'             
     e(  8 -  8) =      4.65593  eV     1   --> A''            
     e(  9 -  9) =      5.01061  eV     1   --> A''            
     e( 10 - 10) =      5.13483  eV     1   --> A'             

 **************************************************************************

 **************************************************************************

                    xk=(   0.23333,   0.13462,   0.00000  )

     Band symmetry, C_s (m)     point group:

     e(  1 -  1) =    -20.62910  eV     1   --> A'             
     e(  2 -  2) =     -9.35187  eV     1   --> A'             
     e(  3 -  3) =     -8.47163  eV     1   --> A''            
     e(  4 -  4) =     -7.24464  eV     1   --> A'             
     e(  5 -  5) =      2.61494  eV     1   --> A'             
     e(  6 -  6) =      3.30082  eV     1   --> A''            
     e(  7 -  7) =      3.45420  eV     1   --> A'             
     e(  8 -  8) =      4.43032  eV     1   --> A''            
     e(  9 -  9) =      4.87577  eV     1   --> A'             
     e( 10 - 10) =      5.41559  eV     1   --> A''            

 **************************************************************************

 **************************************************************************

                    xk=(   0.21667,   0.12500,   0.00000  )

     Band symmetry, C_s (m)     point group:

     e(  1 -  1) =    -20.80432  eV     1   --> A'             
     e(  2 -  2) =     -8.91957  eV     1   --> A'             
     e(  3 -  3) =     -8.67713  eV     1   --> A''            
     e(  4 -  4) =     -7.06830  eV     1   --> A'             
     e(  5 -  5) =      2.37336  eV     1   --> A'             
     e(  6 -  6) =      3.05807  eV     1   --> A''            
     e(  7 -  7) =      3.20707  eV     1   --> A'             
     e(  8 -  8) =      4.19267  eV     1   --> A''            
     e(  9 -  9) =      4.63268  eV     1   --> A'             
     e( 10 - 10) =      5.83439  eV     1   --> A''            

 **************************************************************************

 **************************************************************************

                    xk=(   0.20000,   0.11538,   0.00000  )

     Band symmetry, C_s (m)     point group:

     e(  1 -  1) =    -20.96690  eV     1   --> A'             
     e(  2 -  2) =     -8.86865  eV     1   --> A''            
     e(  3 -  3) =     -8.49565  eV     1   --> A'             
     e(  4 -  4) =     -6.88861  eV     1   --> A'             
     e(  5 -  5) =      2.14952  eV     1   --> A'             
     e(  6 -  6) =      2.83232  eV     1   --> A''            
     e(  7 -  7) =      2.97822  eV     1   --> A'             
     e(  8 -  8) =      3.96898  eV     1   --> A''            
     e(  9 -  9) =      4.40687  eV     1   --> A'             
     e( 10 - 10) =      6.00018  eV     1   --> A'             

 **************************************************************************

 **************************************************************************

                    xk=(   0.18333,   0.10577,   0.00000  )

     Band symmetry, C_s (m)     point group:

     e(  1 -  1) =    -21.11676  eV     1   --> A'             
     e(  2 -  2) =     -9.04584  eV     1   --> A''            
     e(  3 -  3) =     -8.08289  eV     1   --> A'             
     e(  4 -  4) =     -6.70740  eV     1   --> A'             
     e(  5 -  5) =      1.94349  eV     1   --> A'             
     e(  6 -  6) =      2.62414  eV     1   --> A''            
     e(  7 -  7) =      2.76767  eV     1   --> A'             
     e(  8 -  8) =      3.76204  eV     1   --> A''            
     e(  9 -  9) =      4.19877  eV     1   --> A'             
     e( 10 - 10) =      5.86740  eV     1   --> A''            

 **************************************************************************

 **************************************************************************

                    xk=(   0.16667,   0.09615,   0.00000  )

     Band symmetry, C_s (m)     point group:

     e(  1 -  1) =    -21.25382  eV     1   --> A'             
     e(  2 -  2) =     -9.20840  eV     1   --> A''            
     e(  3 -  3) =     -7.68442  eV     1   --> A'             
     e(  4 -  4) =     -6.52675  eV     1   --> A'             
     e(  5 -  5) =      1.75528  eV     1   --> A'             
     e(  6 -  6) =      2.43379  eV     1   --> A''            
     e(  7 -  7) =      2.57542  eV     1   --> A'             
     e(  8 -  8) =      3.57257  eV     1   --> A''            
     e(  9 -  9) =      4.00859  eV     1   --> A'             
     e( 10 - 10) =      5.68291  eV     1   --> A''            

 **************************************************************************

 **************************************************************************

                    xk=(   0.15000,   0.08654,   0.00000  )

     Band symmetry, C_s (m)     point group:

     e(  1 -  1) =    -21.37801  eV     1   --> A'             
     e(  2 -  2) =     -9.35610  eV     1   --> A''            
     e(  3 -  3) =     -7.30376  eV     1   --> A'             
     e(  4 -  4) =     -6.34906  eV     1   --> A'             
     e(  5 -  5) =      1.58495  eV     1   --> A'             
     e(  6 -  6) =      2.26140  eV     1   --> A''            
     e(  7 -  7) =      2.40147  eV     1   --> A'             
     e(  8 -  8) =      3.40087  eV     1   --> A''            
     e(  9 -  9) =      3.83642  eV     1   --> A'             
     e( 10 - 10) =      5.51377  eV     1   --> A''            

 **************************************************************************

 **************************************************************************

                    xk=(   0.13333,   0.07692,   0.00000  )

     Band symmetry, C_s (m)     point group:

     e(  1 -  1) =    -21.48927  eV     1   --> A'             
     e(  2 -  2) =     -9.48871  eV     1   --> A''            
     e(  3 -  3) =     -6.94478  eV     1   --> A'             
     e(  4 -  4) =     -6.17701  eV     1   --> A'             
     e(  5 -  5) =      1.43250  eV     1   --> A'             
     e(  6 -  6) =      2.10705  eV     1   --> A''            
     e(  7 -  7) =      2.24583  eV     1   --> A'             
     e(  8 -  8) =      3.24709  eV     1   --> A''            
     e(  9 -  9) =      3.68231  eV     1   --> A'             
     e( 10 - 10) =      5.36173  eV     1   --> A''            

 **************************************************************************

 **************************************************************************

                    xk=(   0.11667,   0.06731,   0.00000  )

     Band symmetry, C_s (m)     point group:

     e(  1 -  1) =    -21.58756  eV     1   --> A'             
     e(  2 -  2) =     -9.60609  eV     1   --> A''            
     e(  3 -  3) =     -6.61177  eV     1   --> A'             
     e(  4 -  4) =     -6.01358  eV     1   --> A'             
     e(  5 -  5) =      1.29797  eV     1   --> A'             
     e(  6 -  6) =      1.97078  eV     1   --> A''            
     e(  7 -  7) =      2.10851  eV     1   --> A'             
     e(  8 -  8) =      3.11129  eV     1   --> A''            
     e(  9 -  9) =      3.54631  eV     1   --> A'             
     e( 10 - 10) =      5.22728  eV     1   --> A''            

 **************************************************************************

 **************************************************************************

                    xk=(   0.10000,   0.05769,   0.00000  )

     Band symmetry, C_s (m)     point group:

     e(  1 -  1) =    -21.67282  eV     1   --> A'             
     e(  2 -  2) =     -9.70807  eV     1   --> A''            
     e(  3 -  3) =     -6.30928  eV     1   --> A'             
     e(  4 -  4) =     -5.86199  eV     1   --> A'             
     e(  5 -  5) =      1.18136  eV     1   --> A'             
     e(  6 -  6) =      1.85263  eV     1   --> A''            
     e(  7 -  7) =      1.98949  eV     1   --> A'             
     e(  8 -  8) =      2.99354  eV     1   --> A''            
     e(  9 -  9) =      3.42843  eV     1   --> A'             
     e( 10 - 10) =      5.11060  eV     1   --> A''            

 **************************************************************************

 **************************************************************************

                    xk=(   0.08333,   0.04808,   0.00000  )

     Band symmetry, C_s (m)     point group:

     e(  1 -  1) =    -21.74503  eV     1   --> A'             
     e(  2 -  2) =     -9.79455  eV     1   --> A''            
     e(  3 -  3) =     -6.04210  eV     1   --> A'             
     e(  4 -  4) =     -5.72562  eV     1   --> A'             
     e(  5 -  5) =      1.08269  eV     1   --> A'             
     e(  6 -  6) =      1.75263  eV     1   --> A''            
     e(  7 -  7) =      1.88879  eV     1   --> A'             
     e(  8 -  8) =      2.89386  eV     1   --> A''            
     e(  9 -  9) =      3.32868  eV     1   --> A'             
     e( 10 - 10) =      5.01178  eV     1   --> A''            

 **************************************************************************

 **************************************************************************

                    xk=(   0.06667,   0.03846,   0.00000  )

     Band symmetry, C_s (m)     point group:

     e(  1 -  1) =    -21.80416  eV     1   --> A'             
     e(  2 -  2) =     -9.86542  eV     1   --> A''            
     e(  3 -  3) =     -5.81506  eV     1   --> A'             
     e(  4 -  4) =     -5.60791  eV     1   --> A'             
     e(  5 -  5) =      1.00196  eV     1   --> A'             
     e(  6 -  6) =      1.67078  eV     1   --> A''            
     e(  7 -  7) =      1.80640  eV     1   --> A'             
     e(  8 -  8) =      2.81228  eV     1   --> A''            
     e(  9 -  9) =      3.24707  eV     1   --> A'             
     e( 10 - 10) =      4.93087  eV     1   --> A''            

 **************************************************************************

 **************************************************************************

                    xk=(   0.05000,   0.02885,   0.00000  )

     Band symmetry, C_s (m)     point group:

     e(  1 -  1) =    -21.85016  eV     1   --> A'             
     e(  2 -  2) =     -9.92063  eV     1   --> A''            
     e(  3 -  3) =     -5.63279  eV     1   --> A'             
     e(  4 -  4) =     -5.51215  eV     1   --> A'             
     e(  5 -  5) =      0.93918  eV     1   --> A'             
     e(  6 -  6) =      1.60712  eV     1   --> A''            
     e(  7 -  7) =      1.74232  eV     1   --> A'             
     e(  8 -  8) =      2.74882  eV     1   --> A''            
     e(  9 -  9) =      3.18361  eV     1   --> A'             
     e( 10 - 10) =      4.86791  eV     1   --> A''            

 **************************************************************************

 **************************************************************************

                    xk=(   0.03333,   0.01923,   0.00000  )

     Band symmetry, C_s (m)     point group:

     e(  1 -  1) =    -21.88304  eV     1   --> A'             
     e(  2 -  2) =     -9.96009  eV     1   --> A''            
     e(  3 -  3) =     -5.49948  eV     1   --> A'             
     e(  4 -  4) =     -5.44114  eV     1   --> A'             
     e(  5 -  5) =      0.89433  eV     1   --> A'             
     e(  6 -  6) =      1.56164  eV     1   --> A''            
     e(  7 -  7) =      1.69655  eV     1   --> A'             
     e(  8 -  8) =      2.70348  eV     1   --> A''            
     e(  9 -  9) =      3.13828  eV     1   --> A'             
     e( 10 - 10) =      4.82293  eV     1   --> A''            

 **************************************************************************

 **************************************************************************

                    xk=(   0.01667,   0.00962,   0.00000  )

     Band symmetry, C_s (m)     point group:

     e(  1 -  1) =    -21.90277  eV     1   --> A'             
     e(  2 -  2) =     -9.98379  eV     1   --> A''            
     e(  3 -  3) =     -5.41888  eV     1   --> A'             
     e(  4 -  4) =     -5.39674  eV     1   --> A'             
     e(  5 -  5) =      0.86743  eV     1   --> A'             
     e(  6 -  6) =      1.53434  eV     1   --> A''            
     e(  7 -  7) =      1.66909  eV     1   --> A'             
     e(  8 -  8) =      2.67627  eV     1   --> A''            
     e(  9 -  9) =      3.11108  eV     1   --> A'             
     e( 10 - 10) =      4.79593  eV     1   --> A''            

 **************************************************************************

 **************************************************************************

                    xk=(   0.00000,   0.00000,   0.00000  )

     point group C_2v (mm2) 
     there are  4 classes
     the character table:

       E     C2    s_v   s_v' 
A_1    1.00  1.00  1.00  1.00
A_2    1.00  1.00 -1.00 -1.00
B_1    1.00 -1.00  1.00 -1.00
B_2    1.00 -1.00 -1.00  1.00

     the symmetry operations in each class and the name of the first element:

     E        1
                                                                 
     C2       2
                                                                 
     s_v      3
                                                                 
     s_v'     4
                                                                 

     Band symmetry, C_2v (mm2)  point group:

     e(  1 -  1) =    -21.90935  eV     1   --> A_1  D_1  S_1  
     e(  2 -  2) =     -9.99169  eV     1   --> B_2  D_4  S_4  
     e(  3 -  3) =     -5.39315  eV     1   --> B_1  D_3  S_3  
     e(  4 -  4) =     -5.38038  eV     1   --> A_1  D_1  S_1  
     e(  5 -  5) =      0.85846  eV     1   --> A_1  D_1  S_1  
     e(  6 -  6) =      1.52525  eV     1   --> B_2  D_4  S_4  
     e(  7 -  7) =      1.65993  eV     1   --> A_1  D_1  S_1  
     e(  8 -  8) =      2.66720  eV     1   --> B_2  D_4  S_4  
     e(  9 -  9) =      3.10201  eV     1   --> A_1  D_1  S_1  
     e( 10 - 10) =      4.78693  eV     1   --> B_2  D_4  S_4  

 **************************************************************************

     BANDS        :      3.02s CPU      3.26s WALL


   This run was terminated on:  16:33:35  22Mar2024            

=------------------------------------------------------------------------------=
   JOB DONE.
=------------------------------------------------------------------------------=
