
     Program PWSCF v.6.7MaX starts on 22Mar2024 at 16:20:27 

     This program is part of the open-source Quantum ESPRESSO suite
     for quantum simulation of materials; please cite
         "P. Giannozzi et al., J. Phys.:Condens. Matter 21 395502 (2009);
         "P. Giannozzi et al., J. Phys.:Condens. Matter 29 465901 (2017);
          URL http://www.quantum-espresso.org", 
     in publications or presentations arising from this work. More details at
     http://www.quantum-espresso.org/quote

     Parallel version (MPI), running on     8 processors

     MPI processes distributed on     1 nodes
     R & G space division:  proc/nbgrp/npool/nimage =       8
     Reading input from graphene.scf.in

     Current dimensions of program PWSCF are:
     Max number of different atomic species (ntypx) = 10
     Max number of k-points (npk) =  40000
     Max angular momentum in pseudopotentials (lmaxx) =  3
     Message from routine read_pp_mesh:
     mesh size missing, using the one in header
     Message from routine set_cutoff:
     ecutrho < 4*ecutwfc, are you sure?

     Subspace diagonalization in iterative solution of the eigenvalue problem:
     one sub-group per band group will be used
     scalapack distributed-memory algorithm (size of sub-group:  2*  2 procs)

     Message from routine setup:
     using ibrav=0 with symmetry is DISCOURAGED, use correct ibrav instead

     Parallelization info
     --------------------
     sticks:   dense  smooth     PW     G-vecs:    dense   smooth      PW
     Min          32      32     20                 3584     3584    1696
     Max          34      34     21                 3603     3603    1721
     Sum         265     265    163                28761    28761   13643



     bravais-lattice index     =            0
     lattice parameter (alat)  =       4.6506  a.u.
     unit-cell volume          =     708.4381 (a.u.)^3
     number of atoms/cell      =            2
     number of atomic types    =            1
     number of electrons       =         8.00
     number of Kohn-Sham states=            8
     kinetic-energy cutoff     =      90.0000  Ry
     charge density cutoff     =     180.0000  Ry
     scf convergence threshold =      1.0E-06
     mixing beta               =       0.5000
     number of iterations used =            8  plain     mixing
     Exchange-correlation= PBE
                           (   1   4   3   4   0   0   0)

     celldm(1)=   4.650616  celldm(2)=   0.000000  celldm(3)=   0.000000
     celldm(4)=   0.000000  celldm(5)=   0.000000  celldm(6)=   0.000000

     crystal axes: (cart. coord. in units of alat)
               a(1) = (   1.000000   0.000000   0.000000 )  
               a(2) = (  -0.500000   0.866667   0.000000 )  
               a(3) = (   0.000000   0.000000   8.126778 )  

     reciprocal axes: (cart. coord. in units 2 pi/alat)
               b(1) = (  1.000000  0.576923 -0.000000 )  
               b(2) = (  0.000000  1.153846  0.000000 )  
               b(3) = (  0.000000 -0.000000  0.123050 )  


     PseudoPot. # 1 for C  read from file:
     ./PSEUDO/C.upf
     MD5 check sum: 34a24e64c0a39f27c6c36b90a16ac686
     Pseudo is Norm-conserving + core correction, Zval =  4.0
     Generated using ONCVPSP code by D. R. Hamann
     Using radial grid of 1248 points,  4 beta functions with: 
                l(1) =   0
                l(2) =   0
                l(3) =   1
                l(4) =   1

     atomic species   valence    mass     pseudopotential
        C              4.00    12.01100     C ( 1.00)

      4 Sym. Ops. (no inversion) found


                                    s                        frac. trans.

      isym =  1     identity                                     

 cryst.   s( 1) = (     1          0          0      )
                  (     0          1          0      )
                  (     0          0          1      )

 cart.    s( 1) = (  1.0000000  0.0000000  0.0000000 )
                  (  0.0000000  1.0000000  0.0000000 )
                  (  0.0000000  0.0000000  1.0000000 )


      isym =  2     180 deg rotation - cart. axis [0,1,0]        

 cryst.   s( 2) = (    -1          0          0      )
                  (     1          1          0      )
                  (     0          0         -1      )

 cart.    s( 2) = ( -1.0000000  0.0000000  0.0000000 )
                  (  0.0000000  1.0000000  0.0000000 )
                  (  0.0000000  0.0000000 -1.0000000 )


      isym =  3     inv. 180 deg rotation - cart. axis [0,0,1]   

 cryst.   s( 3) = (     1          0          0      )
                  (     0          1          0      )
                  (     0          0         -1      )

 cart.    s( 3) = (  1.0000000  0.0000000  0.0000000 )
                  (  0.0000000  1.0000000  0.0000000 )
                  (  0.0000000  0.0000000 -1.0000000 )


      isym =  4     inv. 180 deg rotation - cart. axis [1,0,0]   

 cryst.   s( 4) = (    -1          0          0      )
                  (     1          1          0      )
                  (     0          0          1      )

 cart.    s( 4) = ( -1.0000000  0.0000000  0.0000000 )
                  (  0.0000000  1.0000000  0.0000000 )
                  (  0.0000000  0.0000000  1.0000000 )


   Cartesian axes

     site n.     atom                  positions (alat units)
         1           C   tau(   1) = (   0.5000000   0.2886751   4.0633889  )
         2           C   tau(   2) = (   0.0000000   0.5773503   4.0633889  )

   Crystallographic axes

     site n.     atom                  positions (cryst. coord.)
         1           C   tau(   1) = (  0.6665433  0.3330867  0.5000000  )
         2           C   tau(   2) = (  0.3330867  0.6661734  0.5000000  )

     number of k points=   186  Gaussian smearing, width (Ry)=  0.0020
                       cart. coord. in units 2pi/alat
        k(    1) = (   0.0000000   0.0000000   0.0000000), wk =   0.0020000
        k(    2) = (   0.0000000   0.0000000   0.0123050), wk =   0.0040000
        k(    3) = (   0.0000000   0.0000000   0.0246100), wk =   0.0040000
        k(    4) = (   0.0000000   0.0000000   0.0369150), wk =   0.0040000
        k(    5) = (   0.0000000   0.0000000   0.0492200), wk =   0.0040000
        k(    6) = (   0.0000000   0.0000000  -0.0615250), wk =   0.0020000
        k(    7) = (   0.0000000   0.1153846   0.0000000), wk =   0.0040000
        k(    8) = (   0.0000000   0.1153846   0.0123050), wk =   0.0080000
        k(    9) = (   0.0000000   0.1153846   0.0246100), wk =   0.0080000
        k(   10) = (   0.0000000   0.1153846   0.0369150), wk =   0.0080000
        k(   11) = (   0.0000000   0.1153846   0.0492200), wk =   0.0080000
        k(   12) = (   0.0000000   0.1153846  -0.0615250), wk =   0.0040000
        k(   13) = (   0.0000000   0.2307692   0.0000000), wk =   0.0040000
        k(   14) = (   0.0000000   0.2307692   0.0123050), wk =   0.0080000
        k(   15) = (   0.0000000   0.2307692   0.0246100), wk =   0.0080000
        k(   16) = (   0.0000000   0.2307692   0.0369150), wk =   0.0080000
        k(   17) = (   0.0000000   0.2307692   0.0492200), wk =   0.0080000
        k(   18) = (   0.0000000   0.2307692  -0.0615250), wk =   0.0040000
        k(   19) = (   0.0000000   0.3461538   0.0000000), wk =   0.0040000
        k(   20) = (   0.0000000   0.3461538   0.0123050), wk =   0.0080000
        k(   21) = (   0.0000000   0.3461538   0.0246100), wk =   0.0080000
        k(   22) = (   0.0000000   0.3461538   0.0369150), wk =   0.0080000
        k(   23) = (   0.0000000   0.3461538   0.0492200), wk =   0.0080000
        k(   24) = (   0.0000000   0.3461538  -0.0615250), wk =   0.0040000
        k(   25) = (   0.0000000   0.4615385   0.0000000), wk =   0.0040000
        k(   26) = (   0.0000000   0.4615385   0.0123050), wk =   0.0080000
        k(   27) = (   0.0000000   0.4615385   0.0246100), wk =   0.0080000
        k(   28) = (   0.0000000   0.4615385   0.0369150), wk =   0.0080000
        k(   29) = (   0.0000000   0.4615385   0.0492200), wk =   0.0080000
        k(   30) = (   0.0000000   0.4615385  -0.0615250), wk =   0.0040000
        k(   31) = (   0.0000000  -0.5769231   0.0000000), wk =   0.0020000
        k(   32) = (   0.0000000  -0.5769231   0.0123050), wk =   0.0040000
        k(   33) = (   0.0000000  -0.5769231   0.0246100), wk =   0.0040000
        k(   34) = (   0.0000000  -0.5769231   0.0369150), wk =   0.0040000
        k(   35) = (   0.0000000  -0.5769231   0.0492200), wk =   0.0040000
        k(   36) = (   0.0000000  -0.5769231  -0.0615250), wk =   0.0020000
        k(   37) = (   0.1000000   0.0576923   0.0000000), wk =   0.0080000
        k(   38) = (   0.1000000   0.0576923   0.0123050), wk =   0.0160000
        k(   39) = (   0.1000000   0.0576923   0.0246100), wk =   0.0160000
        k(   40) = (   0.1000000   0.0576923   0.0369150), wk =   0.0160000
        k(   41) = (   0.1000000   0.0576923   0.0492200), wk =   0.0160000
        k(   42) = (   0.1000000   0.0576923  -0.0615250), wk =   0.0080000
        k(   43) = (   0.1000000   0.1730769   0.0000000), wk =   0.0080000
        k(   44) = (   0.1000000   0.1730769   0.0123050), wk =   0.0160000
        k(   45) = (   0.1000000   0.1730769   0.0246100), wk =   0.0160000
        k(   46) = (   0.1000000   0.1730769   0.0369150), wk =   0.0160000
        k(   47) = (   0.1000000   0.1730769   0.0492200), wk =   0.0160000
        k(   48) = (   0.1000000   0.1730769  -0.0615250), wk =   0.0080000
        k(   49) = (   0.1000000   0.2884615   0.0000000), wk =   0.0080000
        k(   50) = (   0.1000000   0.2884615   0.0123050), wk =   0.0160000
        k(   51) = (   0.1000000   0.2884615   0.0246100), wk =   0.0160000
        k(   52) = (   0.1000000   0.2884615   0.0369150), wk =   0.0160000
        k(   53) = (   0.1000000   0.2884615   0.0492200), wk =   0.0160000
        k(   54) = (   0.1000000   0.2884615  -0.0615250), wk =   0.0080000
        k(   55) = (   0.1000000   0.4038462   0.0000000), wk =   0.0080000
        k(   56) = (   0.1000000   0.4038462   0.0123050), wk =   0.0160000
        k(   57) = (   0.1000000   0.4038462   0.0246100), wk =   0.0160000
        k(   58) = (   0.1000000   0.4038462   0.0369150), wk =   0.0160000
        k(   59) = (   0.1000000   0.4038462   0.0492200), wk =   0.0160000
        k(   60) = (   0.1000000   0.4038462  -0.0615250), wk =   0.0080000
        k(   61) = (   0.1000000   0.5192308   0.0000000), wk =   0.0080000
        k(   62) = (   0.1000000   0.5192308   0.0123050), wk =   0.0160000
        k(   63) = (   0.1000000   0.5192308   0.0246100), wk =   0.0160000
        k(   64) = (   0.1000000   0.5192308   0.0369150), wk =   0.0160000
        k(   65) = (   0.1000000   0.5192308   0.0492200), wk =   0.0160000
        k(   66) = (   0.1000000   0.5192308  -0.0615250), wk =   0.0080000
        k(   67) = (   0.2000000   0.1153846   0.0000000), wk =   0.0080000
        k(   68) = (   0.2000000   0.1153846   0.0123050), wk =   0.0160000
        k(   69) = (   0.2000000   0.1153846   0.0246100), wk =   0.0160000
        k(   70) = (   0.2000000   0.1153846   0.0369150), wk =   0.0160000
        k(   71) = (   0.2000000   0.1153846   0.0492200), wk =   0.0160000
        k(   72) = (   0.2000000   0.1153846  -0.0615250), wk =   0.0080000
        k(   73) = (   0.2000000   0.2307692   0.0000000), wk =   0.0080000
        k(   74) = (   0.2000000   0.2307692   0.0123050), wk =   0.0160000
        k(   75) = (   0.2000000   0.2307692   0.0246100), wk =   0.0160000
        k(   76) = (   0.2000000   0.2307692   0.0369150), wk =   0.0160000
        k(   77) = (   0.2000000   0.2307692   0.0492200), wk =   0.0160000
        k(   78) = (   0.2000000   0.2307692  -0.0615250), wk =   0.0080000
        k(   79) = (   0.2000000   0.3461538   0.0000000), wk =   0.0080000
        k(   80) = (   0.2000000   0.3461538   0.0123050), wk =   0.0160000
        k(   81) = (   0.2000000   0.3461538   0.0246100), wk =   0.0160000
        k(   82) = (   0.2000000   0.3461538   0.0369150), wk =   0.0160000
        k(   83) = (   0.2000000   0.3461538   0.0492200), wk =   0.0160000
        k(   84) = (   0.2000000   0.3461538  -0.0615250), wk =   0.0080000
        k(   85) = (   0.2000000   0.4615385   0.0000000), wk =   0.0080000
        k(   86) = (   0.2000000   0.4615385   0.0123050), wk =   0.0160000
        k(   87) = (   0.2000000   0.4615385   0.0246100), wk =   0.0160000
        k(   88) = (   0.2000000   0.4615385   0.0369150), wk =   0.0160000
        k(   89) = (   0.2000000   0.4615385   0.0492200), wk =   0.0160000
        k(   90) = (   0.2000000   0.4615385  -0.0615250), wk =   0.0080000
        k(   91) = (   0.2000000   0.5769231   0.0000000), wk =   0.0040000
        k(   92) = (   0.2000000   0.5769231   0.0123050), wk =   0.0080000
        k(   93) = (   0.2000000   0.5769231   0.0246100), wk =   0.0080000
        k(   94) = (   0.2000000   0.5769231   0.0369150), wk =   0.0080000
        k(   95) = (   0.2000000   0.5769231   0.0492200), wk =   0.0080000
        k(   96) = (   0.2000000   0.5769231  -0.0615250), wk =   0.0040000
        k(   97) = (   0.2000000   0.0000000   0.0000000), wk =   0.0040000
        k(   98) = (   0.2000000   0.0000000   0.0123050), wk =   0.0080000
        k(   99) = (   0.2000000   0.0000000   0.0246100), wk =   0.0080000
        k(  100) = (   0.2000000   0.0000000   0.0369150), wk =   0.0080000
        k(  101) = (   0.2000000   0.0000000   0.0492200), wk =   0.0080000
        k(  102) = (   0.2000000   0.0000000  -0.0615250), wk =   0.0040000
        k(  103) = (   0.3000000   0.1730769   0.0000000), wk =   0.0080000
        k(  104) = (   0.3000000   0.1730769   0.0123050), wk =   0.0160000
        k(  105) = (   0.3000000   0.1730769   0.0246100), wk =   0.0160000
        k(  106) = (   0.3000000   0.1730769   0.0369150), wk =   0.0160000
        k(  107) = (   0.3000000   0.1730769   0.0492200), wk =   0.0160000
        k(  108) = (   0.3000000   0.1730769  -0.0615250), wk =   0.0080000
        k(  109) = (   0.3000000   0.2884615   0.0000000), wk =   0.0080000
        k(  110) = (   0.3000000   0.2884615   0.0123050), wk =   0.0160000
        k(  111) = (   0.3000000   0.2884615   0.0246100), wk =   0.0160000
        k(  112) = (   0.3000000   0.2884615   0.0369150), wk =   0.0160000
        k(  113) = (   0.3000000   0.2884615   0.0492200), wk =   0.0160000
        k(  114) = (   0.3000000   0.2884615  -0.0615250), wk =   0.0080000
        k(  115) = (   0.3000000   0.4038462   0.0000000), wk =   0.0080000
        k(  116) = (   0.3000000   0.4038462   0.0123050), wk =   0.0160000
        k(  117) = (   0.3000000   0.4038462   0.0246100), wk =   0.0160000
        k(  118) = (   0.3000000   0.4038462   0.0369150), wk =   0.0160000
        k(  119) = (   0.3000000   0.4038462   0.0492200), wk =   0.0160000
        k(  120) = (   0.3000000   0.4038462  -0.0615250), wk =   0.0080000
        k(  121) = (   0.3000000   0.5192308   0.0000000), wk =   0.0080000
        k(  122) = (   0.3000000   0.5192308   0.0123050), wk =   0.0160000
        k(  123) = (   0.3000000   0.5192308   0.0246100), wk =   0.0160000
        k(  124) = (   0.3000000   0.5192308   0.0369150), wk =   0.0160000
        k(  125) = (   0.3000000   0.5192308   0.0492200), wk =   0.0160000
        k(  126) = (   0.3000000   0.5192308  -0.0615250), wk =   0.0080000
        k(  127) = (   0.3000000  -0.0576923   0.0000000), wk =   0.0080000
        k(  128) = (   0.3000000  -0.0576923   0.0123050), wk =   0.0160000
        k(  129) = (   0.3000000  -0.0576923   0.0246100), wk =   0.0160000
        k(  130) = (   0.3000000  -0.0576923   0.0369150), wk =   0.0160000
        k(  131) = (   0.3000000  -0.0576923   0.0492200), wk =   0.0160000
        k(  132) = (   0.3000000  -0.0576923  -0.0615250), wk =   0.0080000
        k(  133) = (   0.4000000   0.2307692   0.0000000), wk =   0.0080000
        k(  134) = (   0.4000000   0.2307692   0.0123050), wk =   0.0160000
        k(  135) = (   0.4000000   0.2307692   0.0246100), wk =   0.0160000
        k(  136) = (   0.4000000   0.2307692   0.0369150), wk =   0.0160000
        k(  137) = (   0.4000000   0.2307692   0.0492200), wk =   0.0160000
        k(  138) = (   0.4000000   0.2307692  -0.0615250), wk =   0.0080000
        k(  139) = (   0.4000000   0.3461538   0.0000000), wk =   0.0080000
        k(  140) = (   0.4000000   0.3461538   0.0123050), wk =   0.0160000
        k(  141) = (   0.4000000   0.3461538   0.0246100), wk =   0.0160000
        k(  142) = (   0.4000000   0.3461538   0.0369150), wk =   0.0160000
        k(  143) = (   0.4000000   0.3461538   0.0492200), wk =   0.0160000
        k(  144) = (   0.4000000   0.3461538  -0.0615250), wk =   0.0080000
        k(  145) = (   0.4000000   0.4615385   0.0000000), wk =   0.0080000
        k(  146) = (   0.4000000   0.4615385   0.0123050), wk =   0.0160000
        k(  147) = (   0.4000000   0.4615385   0.0246100), wk =   0.0160000
        k(  148) = (   0.4000000   0.4615385   0.0369150), wk =   0.0160000
        k(  149) = (   0.4000000   0.4615385   0.0492200), wk =   0.0160000
        k(  150) = (   0.4000000   0.4615385  -0.0615250), wk =   0.0080000
        k(  151) = (   0.4000000   0.5769231   0.0000000), wk =   0.0040000
        k(  152) = (   0.4000000   0.5769231   0.0123050), wk =   0.0080000
        k(  153) = (   0.4000000   0.5769231   0.0246100), wk =   0.0080000
        k(  154) = (   0.4000000   0.5769231   0.0369150), wk =   0.0080000
        k(  155) = (   0.4000000   0.5769231   0.0492200), wk =   0.0080000
        k(  156) = (   0.4000000   0.5769231  -0.0615250), wk =   0.0040000
        k(  157) = (   0.4000000  -0.1153846   0.0000000), wk =   0.0080000
        k(  158) = (   0.4000000  -0.1153846   0.0123050), wk =   0.0160000
        k(  159) = (   0.4000000  -0.1153846   0.0246100), wk =   0.0160000
        k(  160) = (   0.4000000  -0.1153846   0.0369150), wk =   0.0160000
        k(  161) = (   0.4000000  -0.1153846   0.0492200), wk =   0.0160000
        k(  162) = (   0.4000000  -0.1153846  -0.0615250), wk =   0.0080000
        k(  163) = (   0.4000000   0.0000000   0.0000000), wk =   0.0040000
        k(  164) = (   0.4000000   0.0000000   0.0123050), wk =   0.0080000
        k(  165) = (   0.4000000   0.0000000   0.0246100), wk =   0.0080000
        k(  166) = (   0.4000000   0.0000000   0.0369150), wk =   0.0080000
        k(  167) = (   0.4000000   0.0000000   0.0492200), wk =   0.0080000
        k(  168) = (   0.4000000   0.0000000  -0.0615250), wk =   0.0040000
        k(  169) = (  -0.5000000  -0.2884615   0.0000000), wk =   0.0040000
        k(  170) = (  -0.5000000  -0.2884615   0.0123050), wk =   0.0080000
        k(  171) = (  -0.5000000  -0.2884615   0.0246100), wk =   0.0080000
        k(  172) = (  -0.5000000  -0.2884615   0.0369150), wk =   0.0080000
        k(  173) = (  -0.5000000  -0.2884615   0.0492200), wk =   0.0080000
        k(  174) = (  -0.5000000  -0.2884615  -0.0615250), wk =   0.0040000
        k(  175) = (  -0.5000000  -0.1730769   0.0000000), wk =   0.0080000
        k(  176) = (  -0.5000000  -0.1730769   0.0123050), wk =   0.0160000
        k(  177) = (  -0.5000000  -0.1730769   0.0246100), wk =   0.0160000
        k(  178) = (  -0.5000000  -0.1730769   0.0369150), wk =   0.0160000
        k(  179) = (  -0.5000000  -0.1730769   0.0492200), wk =   0.0160000
        k(  180) = (  -0.5000000  -0.1730769  -0.0615250), wk =   0.0080000
        k(  181) = (  -0.5000000  -0.0576923   0.0000000), wk =   0.0080000
        k(  182) = (  -0.5000000  -0.0576923   0.0123050), wk =   0.0160000
        k(  183) = (  -0.5000000  -0.0576923   0.0246100), wk =   0.0160000
        k(  184) = (  -0.5000000  -0.0576923   0.0369150), wk =   0.0160000
        k(  185) = (  -0.5000000  -0.0576923   0.0492200), wk =   0.0160000
        k(  186) = (  -0.5000000  -0.0576923  -0.0615250), wk =   0.0080000

                       cryst. coord.
        k(    1) = (   0.0000000   0.0000000   0.0000000), wk =   0.0020000
        k(    2) = (   0.0000000   0.0000000   0.1000000), wk =   0.0040000
        k(    3) = (   0.0000000   0.0000000   0.2000000), wk =   0.0040000
        k(    4) = (   0.0000000   0.0000000   0.3000000), wk =   0.0040000
        k(    5) = (   0.0000000   0.0000000   0.4000000), wk =   0.0040000
        k(    6) = (   0.0000000   0.0000000  -0.5000000), wk =   0.0020000
        k(    7) = (   0.0000000   0.1000000   0.0000000), wk =   0.0040000
        k(    8) = (   0.0000000   0.1000000   0.1000000), wk =   0.0080000
        k(    9) = (   0.0000000   0.1000000   0.2000000), wk =   0.0080000
        k(   10) = (   0.0000000   0.1000000   0.3000000), wk =   0.0080000
        k(   11) = (   0.0000000   0.1000000   0.4000000), wk =   0.0080000
        k(   12) = (   0.0000000   0.1000000  -0.5000000), wk =   0.0040000
        k(   13) = (   0.0000000   0.2000000   0.0000000), wk =   0.0040000
        k(   14) = (   0.0000000   0.2000000   0.1000000), wk =   0.0080000
        k(   15) = (   0.0000000   0.2000000   0.2000000), wk =   0.0080000
        k(   16) = (   0.0000000   0.2000000   0.3000000), wk =   0.0080000
        k(   17) = (   0.0000000   0.2000000   0.4000000), wk =   0.0080000
        k(   18) = (   0.0000000   0.2000000  -0.5000000), wk =   0.0040000
        k(   19) = (   0.0000000   0.3000000   0.0000000), wk =   0.0040000
        k(   20) = (   0.0000000   0.3000000   0.1000000), wk =   0.0080000
        k(   21) = (   0.0000000   0.3000000   0.2000000), wk =   0.0080000
        k(   22) = (   0.0000000   0.3000000   0.3000000), wk =   0.0080000
        k(   23) = (   0.0000000   0.3000000   0.4000000), wk =   0.0080000
        k(   24) = (   0.0000000   0.3000000  -0.5000000), wk =   0.0040000
        k(   25) = (   0.0000000   0.4000000   0.0000000), wk =   0.0040000
        k(   26) = (   0.0000000   0.4000000   0.1000000), wk =   0.0080000
        k(   27) = (   0.0000000   0.4000000   0.2000000), wk =   0.0080000
        k(   28) = (   0.0000000   0.4000000   0.3000000), wk =   0.0080000
        k(   29) = (   0.0000000   0.4000000   0.4000000), wk =   0.0080000
        k(   30) = (   0.0000000   0.4000000  -0.5000000), wk =   0.0040000
        k(   31) = (   0.0000000  -0.5000000   0.0000000), wk =   0.0020000
        k(   32) = (   0.0000000  -0.5000000   0.1000000), wk =   0.0040000
        k(   33) = (   0.0000000  -0.5000000   0.2000000), wk =   0.0040000
        k(   34) = (   0.0000000  -0.5000000   0.3000000), wk =   0.0040000
        k(   35) = (   0.0000000  -0.5000000   0.4000000), wk =   0.0040000
        k(   36) = (   0.0000000  -0.5000000  -0.5000000), wk =   0.0020000
        k(   37) = (   0.1000000   0.0000000   0.0000000), wk =   0.0080000
        k(   38) = (   0.1000000   0.0000000   0.1000000), wk =   0.0160000
        k(   39) = (   0.1000000   0.0000000   0.2000000), wk =   0.0160000
        k(   40) = (   0.1000000   0.0000000   0.3000000), wk =   0.0160000
        k(   41) = (   0.1000000   0.0000000   0.4000000), wk =   0.0160000
        k(   42) = (   0.1000000   0.0000000  -0.5000000), wk =   0.0080000
        k(   43) = (   0.1000000   0.1000000   0.0000000), wk =   0.0080000
        k(   44) = (   0.1000000   0.1000000   0.1000000), wk =   0.0160000
        k(   45) = (   0.1000000   0.1000000   0.2000000), wk =   0.0160000
        k(   46) = (   0.1000000   0.1000000   0.3000000), wk =   0.0160000
        k(   47) = (   0.1000000   0.1000000   0.4000000), wk =   0.0160000
        k(   48) = (   0.1000000   0.1000000  -0.5000000), wk =   0.0080000
        k(   49) = (   0.1000000   0.2000000   0.0000000), wk =   0.0080000
        k(   50) = (   0.1000000   0.2000000   0.1000000), wk =   0.0160000
        k(   51) = (   0.1000000   0.2000000   0.2000000), wk =   0.0160000
        k(   52) = (   0.1000000   0.2000000   0.3000000), wk =   0.0160000
        k(   53) = (   0.1000000   0.2000000   0.4000000), wk =   0.0160000
        k(   54) = (   0.1000000   0.2000000  -0.5000000), wk =   0.0080000
        k(   55) = (   0.1000000   0.3000000   0.0000000), wk =   0.0080000
        k(   56) = (   0.1000000   0.3000000   0.1000000), wk =   0.0160000
        k(   57) = (   0.1000000   0.3000000   0.2000000), wk =   0.0160000
        k(   58) = (   0.1000000   0.3000000   0.3000000), wk =   0.0160000
        k(   59) = (   0.1000000   0.3000000   0.4000000), wk =   0.0160000
        k(   60) = (   0.1000000   0.3000000  -0.5000000), wk =   0.0080000
        k(   61) = (   0.1000000   0.4000000   0.0000000), wk =   0.0080000
        k(   62) = (   0.1000000   0.4000000   0.1000000), wk =   0.0160000
        k(   63) = (   0.1000000   0.4000000   0.2000000), wk =   0.0160000
        k(   64) = (   0.1000000   0.4000000   0.3000000), wk =   0.0160000
        k(   65) = (   0.1000000   0.4000000   0.4000000), wk =   0.0160000
        k(   66) = (   0.1000000   0.4000000  -0.5000000), wk =   0.0080000
        k(   67) = (   0.2000000   0.0000000   0.0000000), wk =   0.0080000
        k(   68) = (   0.2000000   0.0000000   0.1000000), wk =   0.0160000
        k(   69) = (   0.2000000   0.0000000   0.2000000), wk =   0.0160000
        k(   70) = (   0.2000000   0.0000000   0.3000000), wk =   0.0160000
        k(   71) = (   0.2000000   0.0000000   0.4000000), wk =   0.0160000
        k(   72) = (   0.2000000   0.0000000  -0.5000000), wk =   0.0080000
        k(   73) = (   0.2000000   0.1000000   0.0000000), wk =   0.0080000
        k(   74) = (   0.2000000   0.1000000   0.1000000), wk =   0.0160000
        k(   75) = (   0.2000000   0.1000000   0.2000000), wk =   0.0160000
        k(   76) = (   0.2000000   0.1000000   0.3000000), wk =   0.0160000
        k(   77) = (   0.2000000   0.1000000   0.4000000), wk =   0.0160000
        k(   78) = (   0.2000000   0.1000000  -0.5000000), wk =   0.0080000
        k(   79) = (   0.2000000   0.2000000   0.0000000), wk =   0.0080000
        k(   80) = (   0.2000000   0.2000000   0.1000000), wk =   0.0160000
        k(   81) = (   0.2000000   0.2000000   0.2000000), wk =   0.0160000
        k(   82) = (   0.2000000   0.2000000   0.3000000), wk =   0.0160000
        k(   83) = (   0.2000000   0.2000000   0.4000000), wk =   0.0160000
        k(   84) = (   0.2000000   0.2000000  -0.5000000), wk =   0.0080000
        k(   85) = (   0.2000000   0.3000000   0.0000000), wk =   0.0080000
        k(   86) = (   0.2000000   0.3000000   0.1000000), wk =   0.0160000
        k(   87) = (   0.2000000   0.3000000   0.2000000), wk =   0.0160000
        k(   88) = (   0.2000000   0.3000000   0.3000000), wk =   0.0160000
        k(   89) = (   0.2000000   0.3000000   0.4000000), wk =   0.0160000
        k(   90) = (   0.2000000   0.3000000  -0.5000000), wk =   0.0080000
        k(   91) = (   0.2000000   0.4000000   0.0000000), wk =   0.0040000
        k(   92) = (   0.2000000   0.4000000   0.1000000), wk =   0.0080000
        k(   93) = (   0.2000000   0.4000000   0.2000000), wk =   0.0080000
        k(   94) = (   0.2000000   0.4000000   0.3000000), wk =   0.0080000
        k(   95) = (   0.2000000   0.4000000   0.4000000), wk =   0.0080000
        k(   96) = (   0.2000000   0.4000000  -0.5000000), wk =   0.0040000
        k(   97) = (   0.2000000  -0.1000000   0.0000000), wk =   0.0040000
        k(   98) = (   0.2000000  -0.1000000   0.1000000), wk =   0.0080000
        k(   99) = (   0.2000000  -0.1000000   0.2000000), wk =   0.0080000
        k(  100) = (   0.2000000  -0.1000000   0.3000000), wk =   0.0080000
        k(  101) = (   0.2000000  -0.1000000   0.4000000), wk =   0.0080000
        k(  102) = (   0.2000000  -0.1000000  -0.5000000), wk =   0.0040000
        k(  103) = (   0.3000000   0.0000000   0.0000000), wk =   0.0080000
        k(  104) = (   0.3000000   0.0000000   0.1000000), wk =   0.0160000
        k(  105) = (   0.3000000   0.0000000   0.2000000), wk =   0.0160000
        k(  106) = (   0.3000000   0.0000000   0.3000000), wk =   0.0160000
        k(  107) = (   0.3000000   0.0000000   0.4000000), wk =   0.0160000
        k(  108) = (   0.3000000   0.0000000  -0.5000000), wk =   0.0080000
        k(  109) = (   0.3000000   0.1000000   0.0000000), wk =   0.0080000
        k(  110) = (   0.3000000   0.1000000   0.1000000), wk =   0.0160000
        k(  111) = (   0.3000000   0.1000000   0.2000000), wk =   0.0160000
        k(  112) = (   0.3000000   0.1000000   0.3000000), wk =   0.0160000
        k(  113) = (   0.3000000   0.1000000   0.4000000), wk =   0.0160000
        k(  114) = (   0.3000000   0.1000000  -0.5000000), wk =   0.0080000
        k(  115) = (   0.3000000   0.2000000   0.0000000), wk =   0.0080000
        k(  116) = (   0.3000000   0.2000000   0.1000000), wk =   0.0160000
        k(  117) = (   0.3000000   0.2000000   0.2000000), wk =   0.0160000
        k(  118) = (   0.3000000   0.2000000   0.3000000), wk =   0.0160000
        k(  119) = (   0.3000000   0.2000000   0.4000000), wk =   0.0160000
        k(  120) = (   0.3000000   0.2000000  -0.5000000), wk =   0.0080000
        k(  121) = (   0.3000000   0.3000000   0.0000000), wk =   0.0080000
        k(  122) = (   0.3000000   0.3000000   0.1000000), wk =   0.0160000
        k(  123) = (   0.3000000   0.3000000   0.2000000), wk =   0.0160000
        k(  124) = (   0.3000000   0.3000000   0.3000000), wk =   0.0160000
        k(  125) = (   0.3000000   0.3000000   0.4000000), wk =   0.0160000
        k(  126) = (   0.3000000   0.3000000  -0.5000000), wk =   0.0080000
        k(  127) = (   0.3000000  -0.2000000   0.0000000), wk =   0.0080000
        k(  128) = (   0.3000000  -0.2000000   0.1000000), wk =   0.0160000
        k(  129) = (   0.3000000  -0.2000000   0.2000000), wk =   0.0160000
        k(  130) = (   0.3000000  -0.2000000   0.3000000), wk =   0.0160000
        k(  131) = (   0.3000000  -0.2000000   0.4000000), wk =   0.0160000
        k(  132) = (   0.3000000  -0.2000000  -0.5000000), wk =   0.0080000
        k(  133) = (   0.4000000   0.0000000   0.0000000), wk =   0.0080000
        k(  134) = (   0.4000000   0.0000000   0.1000000), wk =   0.0160000
        k(  135) = (   0.4000000   0.0000000   0.2000000), wk =   0.0160000
        k(  136) = (   0.4000000   0.0000000   0.3000000), wk =   0.0160000
        k(  137) = (   0.4000000   0.0000000   0.4000000), wk =   0.0160000
        k(  138) = (   0.4000000   0.0000000  -0.5000000), wk =   0.0080000
        k(  139) = (   0.4000000   0.1000000   0.0000000), wk =   0.0080000
        k(  140) = (   0.4000000   0.1000000   0.1000000), wk =   0.0160000
        k(  141) = (   0.4000000   0.1000000   0.2000000), wk =   0.0160000
        k(  142) = (   0.4000000   0.1000000   0.3000000), wk =   0.0160000
        k(  143) = (   0.4000000   0.1000000   0.4000000), wk =   0.0160000
        k(  144) = (   0.4000000   0.1000000  -0.5000000), wk =   0.0080000
        k(  145) = (   0.4000000   0.2000000   0.0000000), wk =   0.0080000
        k(  146) = (   0.4000000   0.2000000   0.1000000), wk =   0.0160000
        k(  147) = (   0.4000000   0.2000000   0.2000000), wk =   0.0160000
        k(  148) = (   0.4000000   0.2000000   0.3000000), wk =   0.0160000
        k(  149) = (   0.4000000   0.2000000   0.4000000), wk =   0.0160000
        k(  150) = (   0.4000000   0.2000000  -0.5000000), wk =   0.0080000
        k(  151) = (   0.4000000   0.3000000   0.0000000), wk =   0.0040000
        k(  152) = (   0.4000000   0.3000000   0.1000000), wk =   0.0080000
        k(  153) = (   0.4000000   0.3000000   0.2000000), wk =   0.0080000
        k(  154) = (   0.4000000   0.3000000   0.3000000), wk =   0.0080000
        k(  155) = (   0.4000000   0.3000000   0.4000000), wk =   0.0080000
        k(  156) = (   0.4000000   0.3000000  -0.5000000), wk =   0.0040000
        k(  157) = (   0.4000000  -0.3000000   0.0000000), wk =   0.0080000
        k(  158) = (   0.4000000  -0.3000000   0.1000000), wk =   0.0160000
        k(  159) = (   0.4000000  -0.3000000   0.2000000), wk =   0.0160000
        k(  160) = (   0.4000000  -0.3000000   0.3000000), wk =   0.0160000
        k(  161) = (   0.4000000  -0.3000000   0.4000000), wk =   0.0160000
        k(  162) = (   0.4000000  -0.3000000  -0.5000000), wk =   0.0080000
        k(  163) = (   0.4000000  -0.2000000   0.0000000), wk =   0.0040000
        k(  164) = (   0.4000000  -0.2000000   0.1000000), wk =   0.0080000
        k(  165) = (   0.4000000  -0.2000000   0.2000000), wk =   0.0080000
        k(  166) = (   0.4000000  -0.2000000   0.3000000), wk =   0.0080000
        k(  167) = (   0.4000000  -0.2000000   0.4000000), wk =   0.0080000
        k(  168) = (   0.4000000  -0.2000000  -0.5000000), wk =   0.0040000
        k(  169) = (  -0.5000000   0.0000000   0.0000000), wk =   0.0040000
        k(  170) = (  -0.5000000   0.0000000   0.1000000), wk =   0.0080000
        k(  171) = (  -0.5000000   0.0000000   0.2000000), wk =   0.0080000
        k(  172) = (  -0.5000000   0.0000000   0.3000000), wk =   0.0080000
        k(  173) = (  -0.5000000   0.0000000   0.4000000), wk =   0.0080000
        k(  174) = (  -0.5000000   0.0000000  -0.5000000), wk =   0.0040000
        k(  175) = (  -0.5000000   0.1000000   0.0000000), wk =   0.0080000
        k(  176) = (  -0.5000000   0.1000000   0.1000000), wk =   0.0160000
        k(  177) = (  -0.5000000   0.1000000   0.2000000), wk =   0.0160000
        k(  178) = (  -0.5000000   0.1000000   0.3000000), wk =   0.0160000
        k(  179) = (  -0.5000000   0.1000000   0.4000000), wk =   0.0160000
        k(  180) = (  -0.5000000   0.1000000  -0.5000000), wk =   0.0080000
        k(  181) = (  -0.5000000   0.2000000   0.0000000), wk =   0.0080000
        k(  182) = (  -0.5000000   0.2000000   0.1000000), wk =   0.0160000
        k(  183) = (  -0.5000000   0.2000000   0.2000000), wk =   0.0160000
        k(  184) = (  -0.5000000   0.2000000   0.3000000), wk =   0.0160000
        k(  185) = (  -0.5000000   0.2000000   0.4000000), wk =   0.0160000
        k(  186) = (  -0.5000000   0.2000000  -0.5000000), wk =   0.0080000

     Dense  grid:    28761 G-vectors     FFT dimensions: (  20,  20, 162)

     Dynamical RAM for                 wfc:       0.16 MB

     Dynamical RAM for     wfc (w. buffer):      29.13 MB

     Dynamical RAM for           str. fact:       0.05 MB

     Dynamical RAM for           local pot:       0.00 MB

     Dynamical RAM for          nlocal pot:       0.31 MB

     Dynamical RAM for                qrad:       0.31 MB

     Dynamical RAM for          rho,v,vnew:       0.36 MB

     Dynamical RAM for               rhoin:       0.12 MB

     Dynamical RAM for            rho*nmix:       0.88 MB

     Dynamical RAM for           G-vectors:       0.23 MB

     Dynamical RAM for          h,s,v(r/c):       0.00 MB

     Dynamical RAM for          <psi|beta>:       0.00 MB

     Dynamical RAM for                 psi:       0.31 MB

     Dynamical RAM for                hpsi:       0.31 MB

     Dynamical RAM for      wfcinit/wfcrot:       0.31 MB

     Estimated static dynamical RAM per process >      31.82 MB

     Estimated max dynamical RAM per process >      32.45 MB

     Estimated total dynamical RAM >     259.60 MB

     Initial potential from superposition of free atoms

     starting charge    7.99991, renormalised to    8.00000

     negative rho (up, down):  2.740E-04 0.000E+00
     Starting wfcs are random

     total cpu time spent up to now is        2.0 secs

     Self-consistent Calculation

     iteration #  1     ecut=    90.00 Ry     beta= 0.50
     Davidson diagonalization with overlap
     ethr =  1.00E-02,  avg # of iterations = 11.3

     negative rho (up, down):  2.017E-04 0.000E+00

     total cpu time spent up to now is       23.5 secs

     total energy              =     -24.08459185 Ry
     estimated scf accuracy    <       0.18525086 Ry

     iteration #  2     ecut=    90.00 Ry     beta= 0.50
     Davidson diagonalization with overlap
     ethr =  2.32E-03,  avg # of iterations =  1.6

     negative rho (up, down):  3.116E-04 0.000E+00

     total cpu time spent up to now is       28.6 secs

     total energy              =     -24.09129263 Ry
     estimated scf accuracy    <       0.02079581 Ry

     iteration #  3     ecut=    90.00 Ry     beta= 0.50
     Davidson diagonalization with overlap
     ethr =  2.60E-04,  avg # of iterations =  6.1

     negative rho (up, down):  3.522E-04 0.000E+00

     total cpu time spent up to now is       37.9 secs

     total energy              =     -24.09594579 Ry
     estimated scf accuracy    <       0.00064232 Ry

     iteration #  4     ecut=    90.00 Ry     beta= 0.50
     Davidson diagonalization with overlap
     c_bands:  1 eigenvalues not converged
     c_bands:  1 eigenvalues not converged
     c_bands:  2 eigenvalues not converged
     c_bands:  1 eigenvalues not converged
     c_bands:  1 eigenvalues not converged
     c_bands:  1 eigenvalues not converged
     c_bands:  1 eigenvalues not converged
     c_bands:  1 eigenvalues not converged
     c_bands:  1 eigenvalues not converged
     c_bands:  1 eigenvalues not converged
     c_bands:  1 eigenvalues not converged
     c_bands:  2 eigenvalues not converged
     c_bands:  1 eigenvalues not converged
     c_bands:  1 eigenvalues not converged
     c_bands:  1 eigenvalues not converged
     c_bands:  1 eigenvalues not converged
     c_bands:  1 eigenvalues not converged
     c_bands:  1 eigenvalues not converged
     c_bands:  1 eigenvalues not converged
     c_bands:  1 eigenvalues not converged
     c_bands:  1 eigenvalues not converged
     c_bands:  1 eigenvalues not converged
     c_bands:  1 eigenvalues not converged
     c_bands:  1 eigenvalues not converged
     c_bands:  1 eigenvalues not converged
     c_bands:  1 eigenvalues not converged
     c_bands:  1 eigenvalues not converged
     c_bands:  1 eigenvalues not converged
     c_bands:  1 eigenvalues not converged
     ethr =  8.03E-06,  avg # of iterations = 10.3

     negative rho (up, down):  3.642E-04 0.000E+00

     total cpu time spent up to now is       51.7 secs

     total energy              =     -24.09608506 Ry
     estimated scf accuracy    <       0.00023307 Ry

     iteration #  5     ecut=    90.00 Ry     beta= 0.50
     Davidson diagonalization with overlap
     c_bands:  1 eigenvalues not converged
     c_bands:  1 eigenvalues not converged
     c_bands:  1 eigenvalues not converged
     c_bands:  1 eigenvalues not converged
     c_bands:  1 eigenvalues not converged
     c_bands:  1 eigenvalues not converged
     ethr =  2.91E-06,  avg # of iterations =  5.7

     negative rho (up, down):  3.672E-04 0.000E+00

     total cpu time spent up to now is       61.5 secs

     End of self-consistent calculation

          k = 0.0000 0.0000 0.0000 ( 10045 PWs)   bands (ev):

   -21.9114  -9.9937  -5.3948  -5.3820   0.8564   1.5241   1.6600   2.6666

     occupation numbers 
     1.0000   1.0000   1.0000   1.0000   0.0000   0.0000   0.0000   0.0000

          k = 0.0000 0.0000 0.0123 ( 10068 PWs)   bands (ev):

   -21.9114  -9.9937  -5.3948  -5.3820   0.8571   1.4990   1.6952   2.6180

     occupation numbers 
     1.0000   1.0000   1.0000   1.0000   0.0000   0.0000   0.0000   0.0000

          k = 0.0000 0.0000 0.0246 ( 10070 PWs)   bands (ev):

   -21.9114  -9.9937  -5.3948  -5.3820   0.8592   1.4573   1.7672   2.5136

     occupation numbers 
     1.0000   1.0000   1.0000   1.0000   0.0000   0.0000   0.0000   0.0000

          k = 0.0000 0.0000 0.0369 ( 10070 PWs)   bands (ev):

   -21.9114  -9.9937  -5.3948  -5.3820   0.8616   1.4221   1.8507   2.3985

     occupation numbers 
     1.0000   1.0000   1.0000   1.0000   0.0000   0.0000   0.0000   0.0000

          k = 0.0000 0.0000 0.0492 ( 10066 PWs)   bands (ev):

   -21.9114  -9.9937  -5.3948  -5.3820   0.8636   1.3993   1.9301   2.2981

     occupation numbers 
     1.0000   1.0000   1.0000   1.0000   0.0000   0.0000   0.0000   0.0000

          k = 0.0000 0.0000-0.0615 ( 10074 PWs)   bands (ev):

   -21.9114  -9.9937  -5.3948  -5.3820   0.8644   1.3915   1.9700   2.2512

     occupation numbers 
     1.0000   1.0000   1.0000   1.0000   0.0000   0.0000   0.0000   0.0000

          k = 0.0000 0.1154 0.0000 ( 10106 PWs)   bands (ev):

   -21.6751  -9.7105  -6.3050  -5.8701   1.1790   1.8509   1.9893   2.9927

     occupation numbers 
     1.0000   1.0000   1.0000   1.0000   0.0000   0.0000   0.0000   0.0000

          k = 0.0000 0.1154 0.0123 ( 10106 PWs)   bands (ev):

   -21.6751  -9.7105  -6.3050  -5.8701   1.1798   1.8266   2.0238   2.9442

     occupation numbers 
     1.0000   1.0000   1.0000   1.0000   0.0000   0.0000   0.0000   0.0000

          k = 0.0000 0.1154 0.0246 ( 10117 PWs)   bands (ev):

   -21.6751  -9.7105  -6.3050  -5.8701   1.1817   1.7855   2.0953   2.8399

     occupation numbers 
     1.0000   1.0000   1.0000   1.0000   0.0000   0.0000   0.0000   0.0000

          k = 0.0000 0.1154 0.0369 ( 10116 PWs)   bands (ev):

   -21.6751  -9.7105  -6.3050  -5.8701   1.1839   1.7504   2.1781   2.7253

     occupation numbers 
     1.0000   1.0000   1.0000   1.0000   0.0000   0.0000   0.0000   0.0000

          k = 0.0000 0.1154 0.0492 ( 10118 PWs)   bands (ev):

   -21.6751  -9.7105  -6.3050  -5.8701   1.1858   1.7279   2.2573   2.6253

     occupation numbers 
     1.0000   1.0000   1.0000   1.0000   0.0000   0.0000   0.0000   0.0000

          k = 0.0000 0.1154-0.0615 ( 10110 PWs)   bands (ev):

   -21.6751  -9.7105  -6.3050  -5.8701   1.1867   1.7202   2.2968   2.5787

     occupation numbers 
     1.0000   1.0000   1.0000   1.0000   0.0000   0.0000   0.0000   0.0000

          k = 0.0000 0.2308 0.0000 ( 10154 PWs)   bands (ev):

   -20.9699  -8.8724  -8.4967  -6.8911   2.1460   2.8296   2.9770   3.9673

     occupation numbers 
     1.0000   1.0000   1.0000   1.0000   0.0000   0.0000   0.0000   0.0000

          k = 0.0000 0.2308 0.0123 ( 10149 PWs)   bands (ev):

   -20.9699  -8.8724  -8.4967  -6.8911   2.1468   2.8071   3.0095   3.9196

     occupation numbers 
     1.0000   1.0000   1.0000   1.0000   0.0000   0.0000   0.0000   0.0000

          k = 0.0000 0.2308 0.0246 ( 10141 PWs)   bands (ev):

   -20.9699  -8.8724  -8.4967  -6.8911   2.1483   2.7679   3.0784   3.8174

     occupation numbers 
     1.0000   1.0000   1.0000   1.0000   0.0000   0.0000   0.0000   0.0000

          k = 0.0000 0.2308 0.0369 ( 10138 PWs)   bands (ev):

   -20.9699  -8.8724  -8.4967  -6.8911   2.1504   2.7343   3.1594   3.7049

     occupation numbers 
     1.0000   1.0000   1.0000   1.0000   0.0000   0.0000   0.0000   0.0000

          k = 0.0000 0.2308 0.0492 ( 10142 PWs)   bands (ev):

   -20.9699  -8.8724  -8.4967  -6.8911   2.1522   2.7128   3.2364   3.6068

     occupation numbers 
     1.0000   1.0000   1.0000   1.0000   0.0000   0.0000   0.0000   0.0000

          k = 0.0000 0.2308-0.0615 ( 10152 PWs)   bands (ev):

   -20.9699  -8.8724  -8.4967  -6.8911   2.1529   2.7050   3.2749   3.5617

     occupation numbers 
     1.0000   1.0000   1.0000   1.0000   0.0000   0.0000   0.0000   0.0000

          k = 0.0000 0.3462 0.0000 ( 10216 PWs)   bands (ev):

   -19.8085 -11.1231  -7.8861  -7.5263   3.5192   3.7516   4.4913   4.6220

     occupation numbers 
     1.0000   1.0000   1.0000   1.0000   0.0000   0.0000   0.0000   0.0000

          k = 0.0000 0.3462 0.0123 ( 10220 PWs)   bands (ev):

   -19.8085 -11.1231  -7.8861  -7.5263   3.5192   3.7521   4.4673   4.6560

     occupation numbers 
     1.0000   1.0000   1.0000   1.0000   0.0000   0.0000   0.0000   0.0000

          k = 0.0000 0.3462 0.0246 ( 10224 PWs)   bands (ev):

   -19.8085 -11.1231  -7.8861  -7.5263   3.5191   3.7535   4.4276   4.7264

     occupation numbers 
     1.0000   1.0000   1.0000   1.0000   0.0000   0.0000   0.0000   0.0000

          k = 0.0000 0.3462 0.0369 ( 10211 PWs)   bands (ev):

   -19.8085 -11.1231  -7.8861  -7.5263   3.5191   3.7552   4.3941   4.8079

     occupation numbers 
     1.0000   1.0000   1.0000   1.0000   0.0000   0.0000   0.0000   0.0000

          k = 0.0000 0.3462 0.0492 ( 10190 PWs)   bands (ev):

   -19.8085 -11.1231  -7.8861  -7.5263   3.5191   3.7566   4.3727   4.8862

     occupation numbers 
     1.0000   1.0000   1.0000   1.0000   0.0000   0.0000   0.0000   0.0000

          k = 0.0000 0.3462-0.0615 ( 10184 PWs)   bands (ev):

   -19.8085 -11.1231  -7.8861  -7.5263   3.5190   3.7572   4.3654   4.9275

     occupation numbers 
     1.0000   1.0000   1.0000   1.0000   0.0000   0.0000   0.0000   0.0000

          k = 0.0000 0.4615 0.0000 ( 10230 PWs)   bands (ev):

   -18.2242 -13.7080  -8.5596  -5.8381   0.8540   5.2842   6.0158   6.7441

     occupation numbers 
     1.0000   1.0000   1.0000   1.0000   0.0000   0.0000   0.0000   0.0000

          k = 0.0000 0.4615 0.0123 ( 10223 PWs)   bands (ev):

   -18.2242 -13.7080  -8.5596  -5.8381   0.8540   5.2842   6.0159   6.7291

     occupation numbers 
     1.0000   1.0000   1.0000   1.0000   0.0000   0.0000   0.0000   0.0000

          k = 0.0000 0.4615 0.0246 ( 10231 PWs)   bands (ev):

   -18.2242 -13.7080  -8.5596  -5.8381   0.8540   5.2843   6.0171   6.6964

     occupation numbers 
     1.0000   1.0000   1.0000   1.0000   0.0000   0.0000   0.0000   0.0000

          k = 0.0000 0.4615 0.0369 ( 10232 PWs)   bands (ev):

   -18.2242 -13.7080  -8.5596  -5.8381   0.8540   5.2843   6.0184   6.6689

     occupation numbers 
     1.0000   1.0000   1.0000   1.0000   0.0000   0.0000   0.0000   0.0000

          k = 0.0000 0.4615 0.0492 ( 10222 PWs)   bands (ev):

   -18.2242 -13.7080  -8.5596  -5.8381   0.8540   5.2843   6.0196   6.6489

     occupation numbers 
     1.0000   1.0000   1.0000   1.0000   0.0000   0.0000   0.0000   0.0000

          k = 0.0000 0.4615-0.0615 ( 10220 PWs)   bands (ev):

   -18.2242 -13.7080  -8.5596  -5.8381   0.8540   5.2843   6.0199   6.6428

     occupation numbers 
     1.0000   1.0000   1.0000   1.0000   0.0000   0.0000   0.0000   0.0000

          k = 0.0000-0.5769 0.0000 ( 10232 PWs)   bands (ev):

   -16.6592 -15.6234  -8.7944  -4.7156  -0.6314   5.1784   8.7623   8.9016

     occupation numbers 
     1.0000   1.0000   1.0000   1.0000   0.0000   0.0000   0.0000   0.0000

          k = 0.0000-0.5769 0.0123 ( 10228 PWs)   bands (ev):

   -16.6592 -15.6234  -8.7944  -4.7156  -0.6314   5.1784   8.7625   8.9019

     occupation numbers 
     1.0000   1.0000   1.0000   1.0000   0.0000   0.0000   0.0000   0.0000

          k = 0.0000-0.5769 0.0246 ( 10234 PWs)   bands (ev):

   -16.6592 -15.6234  -8.7944  -4.7156  -0.6314   5.1785   8.7631   8.9027

     occupation numbers 
     1.0000   1.0000   1.0000   1.0000   0.0000   0.0000   0.0000   0.0000

          k = 0.0000-0.5769 0.0369 ( 10226 PWs)   bands (ev):

   -16.6592 -15.6234  -8.7944  -4.7156  -0.6314   5.1784   8.7636   8.9039

     occupation numbers 
     1.0000   1.0000   1.0000   1.0000   0.0000   0.0000   0.0000   0.0000

          k = 0.0000-0.5769 0.0492 ( 10238 PWs)   bands (ev):

   -16.6592 -15.6234  -8.7944  -4.7156  -0.6314   5.1784   8.7642   8.9046

     occupation numbers 
     1.0000   1.0000   1.0000   1.0000   0.0000   0.0000   0.0000   0.0000

          k = 0.0000-0.5769-0.0615 ( 10228 PWs)   bands (ev):

   -16.6592 -15.6234  -8.7944  -4.7156  -0.6314   5.1785   8.7641   8.9047

     occupation numbers 
     1.0000   1.0000   1.0000   1.0000   0.0000   0.0000   0.0000   0.0000

          k = 0.1000 0.0577 0.0000 ( 10106 PWs)   bands (ev):

   -21.6749  -9.7101  -6.3110  -5.8636   1.1794   1.8512   1.9896   2.9934

     occupation numbers 
     1.0000   1.0000   1.0000   1.0000   0.0000   0.0000   0.0000   0.0000

          k = 0.1000 0.0577 0.0123 ( 10113 PWs)   bands (ev):

   -21.6749  -9.7101  -6.3110  -5.8636   1.1800   1.8270   2.0242   2.9442

     occupation numbers 
     1.0000   1.0000   1.0000   1.0000   0.0000   0.0000   0.0000   0.0000

          k = 0.1000 0.0577 0.0246 ( 10117 PWs)   bands (ev):

   -21.6749  -9.7101  -6.3110  -5.8636   1.1821   1.7857   2.0957   2.8401

     occupation numbers 
     1.0000   1.0000   1.0000   1.0000   0.0000   0.0000   0.0000   0.0000

          k = 0.1000 0.0577 0.0369 ( 10119 PWs)   bands (ev):

   -21.6749  -9.7101  -6.3110  -5.8636   1.1843   1.7508   2.1785   2.7257

     occupation numbers 
     1.0000   1.0000   1.0000   1.0000   0.0000   0.0000   0.0000   0.0000

          k = 0.1000 0.0577 0.0492 ( 10121 PWs)   bands (ev):

   -21.6749  -9.7101  -6.3110  -5.8636   1.1862   1.7282   2.2576   2.6257

     occupation numbers 
     1.0000   1.0000   1.0000   1.0000   0.0000   0.0000   0.0000   0.0000

          k = 0.1000 0.0577-0.0615 ( 10112 PWs)   bands (ev):

   -21.6749  -9.7101  -6.3110  -5.8636   1.1871   1.7207   2.2970   2.5790

     occupation numbers 
     1.0000   1.0000   1.0000   1.0000   0.0000   0.0000   0.0000   0.0000

          k = 0.1000 0.1731 0.0000 ( 10165 PWs)   bands (ev):

   -21.2041  -9.1490  -7.6601  -6.8235   1.8249   2.5047   2.6481   3.6443

     occupation numbers 
     1.0000   1.0000   1.0000   1.0000   0.0000   0.0000   0.0000   0.0000

          k = 0.1000 0.1731 0.0123 ( 10158 PWs)   bands (ev):

   -21.2041  -9.1490  -7.6601  -6.8235   1.8251   2.4814   2.6814   3.5960

     occupation numbers 
     1.0000   1.0000   1.0000   1.0000   0.0000   0.0000   0.0000   0.0000

          k = 0.1000 0.1731 0.0246 ( 10157 PWs)   bands (ev):

   -21.2041  -9.1490  -7.6601  -6.8235   1.8269   2.4414   2.7517   3.4927

     occupation numbers 
     1.0000   1.0000   1.0000   1.0000   0.0000   0.0000   0.0000   0.0000

          k = 0.1000 0.1731 0.0369 ( 10158 PWs)   bands (ev):

   -21.2041  -9.1490  -7.6601  -6.8235   1.8291   2.4072   2.8333   3.3796

     occupation numbers 
     1.0000   1.0000   1.0000   1.0000   0.0000   0.0000   0.0000   0.0000

          k = 0.1000 0.1731 0.0492 ( 10159 PWs)   bands (ev):

   -21.2041  -9.1490  -7.6601  -6.8235   1.8310   2.3854   2.9112   3.2805

     occupation numbers 
     1.0000   1.0000   1.0000   1.0000   0.0000   0.0000   0.0000   0.0000

          k = 0.1000 0.1731-0.0615 ( 10146 PWs)   bands (ev):

   -21.2041  -9.1490  -7.6601  -6.8235   1.8316   2.3777   2.9499   3.2346

     occupation numbers 
     1.0000   1.0000   1.0000   1.0000   0.0000   0.0000   0.0000   0.0000

          k = 0.1000 0.2885 0.0000 ( 10214 PWs)   bands (ev):

   -20.2708  -9.8317  -8.0731  -8.0525   3.1127   3.8003   3.9651   4.6429

     occupation numbers 
     1.0000   1.0000   1.0000   1.0000   0.0000   0.0000   0.0000   0.0000

          k = 0.1000 0.2885 0.0123 ( 10217 PWs)   bands (ev):

   -20.2708  -9.8317  -8.0731  -8.0525   3.1133   3.7810   3.9942   4.6430

     occupation numbers 
     1.0000   1.0000   1.0000   1.0000   0.0000   0.0000   0.0000   0.0000

          k = 0.1000 0.2885 0.0246 ( 10212 PWs)   bands (ev):

   -20.2708  -9.8317  -8.0731  -8.0525   3.1148   3.7453   4.0584   4.6385

     occupation numbers 
     1.0000   1.0000   1.0000   1.0000   0.0000   0.0000   0.0000   0.0000

          k = 0.1000 0.2885 0.0369 ( 10208 PWs)   bands (ev):

   -20.2708  -9.8317  -8.0731  -8.0525   3.1167   3.7137   4.1344   4.6262

     occupation numbers 
     1.0000   1.0000   1.0000   1.0000   0.0000   0.0000   0.0000   0.0000

          k = 0.1000 0.2885 0.0492 ( 10207 PWs)   bands (ev):

   -20.2708  -9.8317  -8.0731  -8.0525   3.1182   3.6931   4.2055   4.5942

     occupation numbers 
     1.0000   1.0000   1.0000   1.0000   0.0000   0.0000   0.0000   0.0000

          k = 0.1000 0.2885-0.0615 ( 10208 PWs)   bands (ev):

   -20.2708  -9.8317  -8.0731  -8.0525   3.1189   3.6861   4.2398   4.5514

     occupation numbers 
     1.0000   1.0000   1.0000   1.0000   0.0000   0.0000   0.0000   0.0000

          k = 0.1000 0.4038 0.0000 ( 10226 PWs)   bands (ev):

   -18.8959 -12.3520  -8.9944  -6.5029   2.0210   5.0324   5.7586   5.9376

     occupation numbers 
     1.0000   1.0000   1.0000   1.0000   0.0000   0.0000   0.0000   0.0000

          k = 0.1000 0.4038 0.0123 ( 10225 PWs)   bands (ev):

   -18.8959 -12.3520  -8.9944  -6.5029   2.0210   5.0329   5.7421   5.9639

     occupation numbers 
     1.0000   1.0000   1.0000   1.0000   0.0000   0.0000   0.0000   0.0000

          k = 0.1000 0.4038 0.0246 ( 10227 PWs)   bands (ev):

   -18.8959 -12.3520  -8.9944  -6.5029   2.0210   5.0340   5.7100   6.0246

     occupation numbers 
     1.0000   1.0000   1.0000   1.0000   0.0000   0.0000   0.0000   0.0000

          k = 0.1000 0.4038 0.0369 ( 10231 PWs)   bands (ev):

   -18.8959 -12.3520  -8.9944  -6.5029   2.0210   5.0355   5.6809   6.0983

     occupation numbers 
     1.0000   1.0000   1.0000   1.0000   0.0000   0.0000   0.0000   0.0000

          k = 0.1000 0.4038 0.0492 ( 10232 PWs)   bands (ev):

   -18.8959 -12.3520  -8.9944  -6.5029   2.0210   5.0367   5.6618   6.1700

     occupation numbers 
     1.0000   1.0000   1.0000   1.0000   0.0000   0.0000   0.0000   0.0000

          k = 0.1000 0.4038-0.0615 ( 10236 PWs)   bands (ev):

   -18.8959 -12.3520  -8.9944  -6.5029   2.0210   5.0371   5.6551   6.2059

     occupation numbers 
     1.0000   1.0000   1.0000   1.0000   0.0000   0.0000   0.0000   0.0000

          k = 0.1000 0.5192 0.0000 ( 10231 PWs)   bands (ev):

   -17.1575 -14.7392  -9.4736  -4.8586  -0.2502   6.2217   7.5809   8.2986

     occupation numbers 
     1.0000   1.0000   1.0000   1.0000   0.0000   0.0000   0.0000   0.0000

          k = 0.1000 0.5192 0.0123 ( 10239 PWs)   bands (ev):

   -17.1575 -14.7392  -9.4736  -4.8586  -0.2502   6.2217   7.5814   8.2901

     occupation numbers 
     1.0000   1.0000   1.0000   1.0000   0.0000   0.0000   0.0000   0.0000

          k = 0.1000 0.5192 0.0246 ( 10245 PWs)   bands (ev):

   -17.1575 -14.7392  -9.4736  -4.8586  -0.2502   6.2217   7.5821   8.2712

     occupation numbers 
     1.0000   1.0000   1.0000   1.0000   0.0000   0.0000   0.0000   0.0000

          k = 0.1000 0.5192 0.0369 ( 10241 PWs)   bands (ev):

   -17.1575 -14.7392  -9.4736  -4.8586  -0.2502   6.2217   7.5830   8.2518

     occupation numbers 
     1.0000   1.0000   1.0000   1.0000   0.0000   0.0000   0.0000   0.0000

          k = 0.1000 0.5192 0.0492 ( 10238 PWs)   bands (ev):

   -17.1575 -14.7392  -9.4736  -4.8586  -0.2501   6.2217   7.5841   8.2381

     occupation numbers 
     1.0000   1.0000   1.0000   1.0000   0.0000   0.0000   0.0000   0.0000

          k = 0.1000 0.5192-0.0615 ( 10232 PWs)   bands (ev):

   -17.1575 -14.7392  -9.4736  -4.8586  -0.2502   6.2217   7.5842   8.2328

     occupation numbers 
     1.0000   1.0000   1.0000   1.0000   0.0000   0.0000   0.0000   0.0000

          k = 0.2000 0.1154 0.0000 ( 10156 PWs)   bands (ev):

   -20.9689  -8.8706  -8.4974  -6.8903   2.1476   2.8309   2.9789   3.9684

     occupation numbers 
     1.0000   1.0000   1.0000   1.0000   0.0000   0.0000   0.0000   0.0000

          k = 0.2000 0.1154 0.0123 ( 10150 PWs)   bands (ev):

   -20.9689  -8.8706  -8.4974  -6.8903   2.1484   2.8087   3.0110   3.9213

     occupation numbers 
     1.0000   1.0000   1.0000   1.0000   0.0000   0.0000   0.0000   0.0000

          k = 0.2000 0.1154 0.0246 ( 10137 PWs)   bands (ev):

   -20.9689  -8.8706  -8.4974  -6.8903   2.1498   2.7694   3.0799   3.8185

     occupation numbers 
     1.0000   1.0000   1.0000   1.0000   0.0000   0.0000   0.0000   0.0000

          k = 0.2000 0.1154 0.0369 ( 10143 PWs)   bands (ev):

   -20.9689  -8.8706  -8.4974  -6.8903   2.1520   2.7359   3.1609   3.7062

     occupation numbers 
     1.0000   1.0000   1.0000   1.0000   0.0000   0.0000   0.0000   0.0000

          k = 0.2000 0.1154 0.0492 ( 10146 PWs)   bands (ev):

   -20.9689  -8.8706  -8.4974  -6.8903   2.1537   2.7143   3.2384   3.6084

     occupation numbers 
     1.0000   1.0000   1.0000   1.0000   0.0000   0.0000   0.0000   0.0000

          k = 0.2000 0.1154-0.0615 ( 10148 PWs)   bands (ev):

   -20.9689  -8.8706  -8.4974  -6.8903   2.1544   2.7065   3.2762   3.5629

     occupation numbers 
     1.0000   1.0000   1.0000   1.0000   0.0000   0.0000   0.0000   0.0000

          k = 0.2000 0.2308 0.0000 ( 10214 PWs)   bands (ev):

   -20.2701  -9.8290  -8.0766  -8.0510   3.1138   3.8018   3.9662   4.6443

     occupation numbers 
     1.0000   1.0000   1.0000   1.0000   0.0000   0.0000   0.0000   0.0000

          k = 0.2000 0.2308 0.0123 ( 10217 PWs)   bands (ev):

   -20.2701  -9.8290  -8.0766  -8.0510   3.1144   3.7824   3.9954   4.6436

     occupation numbers 
     1.0000   1.0000   1.0000   1.0000   0.0000   0.0000   0.0000   0.0000

          k = 0.2000 0.2308 0.0246 ( 10214 PWs)   bands (ev):

   -20.2701  -9.8290  -8.0766  -8.0510   3.1159   3.7467   4.0597   4.6404

     occupation numbers 
     1.0000   1.0000   1.0000   1.0000   0.0000   0.0000   0.0000   0.0000

          k = 0.2000 0.2308 0.0369 ( 10205 PWs)   bands (ev):

   -20.2701  -9.8290  -8.0766  -8.0510   3.1178   3.7151   4.1359   4.6293

     occupation numbers 
     1.0000   1.0000   1.0000   1.0000   0.0000   0.0000   0.0000   0.0000

          k = 0.2000 0.2308 0.0492 ( 10207 PWs)   bands (ev):

   -20.2701  -9.8290  -8.0766  -8.0510   3.1193   3.6944   4.2073   4.6027

     occupation numbers 
     1.0000   1.0000   1.0000   1.0000   0.0000   0.0000   0.0000   0.0000

          k = 0.2000 0.2308-0.0615 ( 10206 PWs)   bands (ev):

   -20.2701  -9.8290  -8.0766  -8.0510   3.1200   3.6876   4.2415   4.5507

     occupation numbers 
     1.0000   1.0000   1.0000   1.0000   0.0000   0.0000   0.0000   0.0000

          k = 0.2000 0.3462 0.0000 ( 10241 PWs)   bands (ev):

   -19.1227 -11.3047  -9.8459  -6.7337   2.5955   4.7181   5.4159   5.6124

     occupation numbers 
     1.0000   1.0000   1.0000   1.0000   0.0000   0.0000   0.0000   0.0000

          k = 0.2000 0.3462 0.0123 ( 10244 PWs)   bands (ev):

   -19.1227 -11.3047  -9.8459  -6.7337   2.5955   4.7187   5.4009   5.6369

     occupation numbers 
     1.0000   1.0000   1.0000   1.0000   0.0000   0.0000   0.0000   0.0000

          k = 0.2000 0.3462 0.0246 ( 10243 PWs)   bands (ev):

   -19.1227 -11.3047  -9.8459  -6.7337   2.5955   4.7199   5.3708   5.6947

     occupation numbers 
     1.0000   1.0000   1.0000   1.0000   0.0000   0.0000   0.0000   0.0000

          k = 0.2000 0.3462 0.0369 ( 10250 PWs)   bands (ev):

   -19.1227 -11.3047  -9.8459  -6.7337   2.5955   4.7213   5.3426   5.7653

     occupation numbers 
     1.0000   1.0000   1.0000   1.0000   0.0000   0.0000   0.0000   0.0000

          k = 0.2000 0.3462 0.0492 ( 10260 PWs)   bands (ev):

   -19.1227 -11.3047  -9.8459  -6.7337   2.5956   4.7227   5.3241   5.8321

     occupation numbers 
     1.0000   1.0000   1.0000   1.0000   0.0000   0.0000   0.0000   0.0000

          k = 0.2000 0.3462-0.0615 ( 10262 PWs)   bands (ev):

   -19.1227 -11.3047  -9.8459  -6.7337   2.5955   4.7231   5.3175   5.8636

     occupation numbers 
     1.0000   1.0000   1.0000   1.0000   0.0000   0.0000   0.0000   0.0000

          k = 0.2000 0.4615 0.0000 ( 10255 PWs)   bands (ev):

   -17.5680 -13.3074 -10.9193  -5.0572   0.3901   6.9353   7.5695   7.9134

     occupation numbers 
     1.0000   1.0000   1.0000   1.0000   0.0000   0.0000   0.0000   0.0000

          k = 0.2000 0.4615 0.0123 ( 10250 PWs)   bands (ev):

   -17.5680 -13.3074 -10.9193  -5.0572   0.3901   6.9355   7.5641   7.9254

     occupation numbers 
     1.0000   1.0000   1.0000   1.0000   0.0000   0.0000   0.0000   0.0000

          k = 0.2000 0.4615 0.0246 ( 10254 PWs)   bands (ev):

   -17.5680 -13.3074 -10.9193  -5.0572   0.3901   6.9364   7.5511   7.9579

     occupation numbers 
     1.0000   1.0000   1.0000   1.0000   0.0000   0.0000   0.0000   0.0000

          k = 0.2000 0.4615 0.0369 ( 10252 PWs)   bands (ev):

   -17.5680 -13.3074 -10.9193  -5.0572   0.3901   6.9375   7.5365   7.9991

     occupation numbers 
     1.0000   1.0000   1.0000   1.0000   0.0000   0.0000   0.0000   0.0000

          k = 0.2000 0.4615 0.0492 ( 10245 PWs)   bands (ev):

   -17.5680 -13.3074 -10.9193  -5.0572   0.3901   6.9384   7.5258   8.0372

     occupation numbers 
     1.0000   1.0000   1.0000   1.0000   0.0000   0.0000   0.0000   0.0000

          k = 0.2000 0.4615-0.0615 ( 10252 PWs)   bands (ev):

   -17.5680 -13.3074 -10.9193  -5.0572   0.3901   6.9387   7.5219   8.0519

     occupation numbers 
     1.0000   1.0000   1.0000   1.0000   0.0000   0.0000   0.0000   0.0000

          k = 0.2000 0.5769 0.0000 ( 10237 PWs)   bands (ev):

   -16.0525 -15.0612 -11.2238  -3.8504  -1.0136   8.6166   9.0272   9.5695

     occupation numbers 
     1.0000   1.0000   1.0000   1.0000   0.0000   0.0000   0.0000   0.0000

          k = 0.2000 0.5769 0.0123 ( 10241 PWs)   bands (ev):

   -16.0525 -15.0612 -11.2238  -3.8504  -1.0136   8.6165   9.0272   9.5701

     occupation numbers 
     1.0000   1.0000   1.0000   1.0000   0.0000   0.0000   0.0000   0.0000

          k = 0.2000 0.5769 0.0246 ( 10251 PWs)   bands (ev):

   -16.0525 -15.0612 -11.2238  -3.8504  -1.0136   8.6165   9.0272   9.5704

     occupation numbers 
     1.0000   1.0000   1.0000   1.0000   0.0000   0.0000   0.0000   0.0000

          k = 0.2000 0.5769 0.0369 ( 10244 PWs)   bands (ev):

   -16.0525 -15.0612 -11.2238  -3.8504  -1.0136   8.6166   9.0272   9.5708

     occupation numbers 
     1.0000   1.0000   1.0000   1.0000   0.0000   0.0000   0.0000   0.0000

          k = 0.2000 0.5769 0.0492 ( 10240 PWs)   bands (ev):

   -16.0525 -15.0612 -11.2238  -3.8504  -1.0136   8.6165   9.0271   9.5708

     occupation numbers 
     1.0000   1.0000   1.0000   1.0000   0.0000   0.0000   0.0000   0.0000

          k = 0.2000 0.5769-0.0615 ( 10244 PWs)   bands (ev):

   -16.0525 -15.0612 -11.2238  -3.8504  -1.0136   8.6166   9.0271   9.5701

     occupation numbers 
     1.0000   1.0000   1.0000   1.0000   0.0000   0.0000   0.0000   0.0000

          k = 0.2000 0.0000 0.0000 ( 10165 PWs)   bands (ev):

   -21.2034  -9.1477  -7.6705  -6.8120   1.8257   2.5055   2.6493   3.6455

     occupation numbers 
     1.0000   1.0000   1.0000   1.0000   0.0000   0.0000   0.0000   0.0000

          k = 0.2000 0.0000 0.0123 ( 10159 PWs)   bands (ev):

   -21.2034  -9.1477  -7.6705  -6.8120   1.8263   2.4824   2.6825   3.5968

     occupation numbers 
     1.0000   1.0000   1.0000   1.0000   0.0000   0.0000   0.0000   0.0000

          k = 0.2000 0.0000 0.0246 ( 10152 PWs)   bands (ev):

   -21.2034  -9.1477  -7.6705  -6.8120   1.8281   2.4424   2.7528   3.4937

     occupation numbers 
     1.0000   1.0000   1.0000   1.0000   0.0000   0.0000   0.0000   0.0000

          k = 0.2000 0.0000 0.0369 ( 10156 PWs)   bands (ev):

   -21.2034  -9.1477  -7.6705  -6.8120   1.8303   2.4083   2.8343   3.3805

     occupation numbers 
     1.0000   1.0000   1.0000   1.0000   0.0000   0.0000   0.0000   0.0000

          k = 0.2000 0.0000 0.0492 ( 10152 PWs)   bands (ev):

   -21.2034  -9.1477  -7.6705  -6.8120   1.8322   2.3866   2.9123   3.2816

     occupation numbers 
     1.0000   1.0000   1.0000   1.0000   0.0000   0.0000   0.0000   0.0000

          k = 0.2000 0.0000-0.0615 ( 10142 PWs)   bands (ev):

   -21.2034  -9.1477  -7.6705  -6.8120   1.8329   2.3787   2.9510   3.2358

     occupation numbers 
     1.0000   1.0000   1.0000   1.0000   0.0000   0.0000   0.0000   0.0000

          k = 0.3000 0.1731 0.0000 ( 10216 PWs)   bands (ev):

   -19.8062 -11.1215  -7.8895  -7.5220   3.5199   3.7549   4.4934   4.6258

     occupation numbers 
     1.0000   1.0000   1.0000   1.0000   0.0000   0.0000   0.0000   0.0000

          k = 0.3000 0.1731 0.0123 ( 10218 PWs)   bands (ev):

   -19.8062 -11.1215  -7.8895  -7.5220   3.5198   3.7553   4.4698   4.6591

     occupation numbers 
     1.0000   1.0000   1.0000   1.0000   0.0000   0.0000   0.0000   0.0000

          k = 0.3000 0.1731 0.0246 ( 10221 PWs)   bands (ev):

   -19.8062 -11.1215  -7.8895  -7.5220   3.5198   3.7567   4.4302   4.7290

     occupation numbers 
     1.0000   1.0000   1.0000   1.0000   0.0000   0.0000   0.0000   0.0000

          k = 0.3000 0.1731 0.0369 ( 10210 PWs)   bands (ev):

   -19.8062 -11.1215  -7.8895  -7.5220   3.5198   3.7585   4.3969   4.8106

     occupation numbers 
     1.0000   1.0000   1.0000   1.0000   0.0000   0.0000   0.0000   0.0000

          k = 0.3000 0.1731 0.0492 ( 10190 PWs)   bands (ev):

   -19.8062 -11.1215  -7.8895  -7.5220   3.5197   3.7599   4.3753   4.8892

     occupation numbers 
     1.0000   1.0000   1.0000   1.0000   0.0000   0.0000   0.0000   0.0000

          k = 0.3000 0.1731-0.0615 ( 10184 PWs)   bands (ev):

   -19.8062 -11.1215  -7.8895  -7.5220   3.5197   3.7605   4.3680   4.9287

     occupation numbers 
     1.0000   1.0000   1.0000   1.0000   0.0000   0.0000   0.0000   0.0000

          k = 0.3000 0.2885 0.0000 ( 10224 PWs)   bands (ev):

   -18.8938 -12.3487  -9.0003  -6.4984   2.0207   5.0351   5.7611   5.9405

     occupation numbers 
     1.0000   1.0000   1.0000   1.0000   0.0000   0.0000   0.0000   0.0000

          k = 0.3000 0.2885 0.0123 ( 10224 PWs)   bands (ev):

   -18.8938 -12.3487  -9.0003  -6.4984   2.0207   5.0355   5.7446   5.9667

     occupation numbers 
     1.0000   1.0000   1.0000   1.0000   0.0000   0.0000   0.0000   0.0000

          k = 0.3000 0.2885 0.0246 ( 10226 PWs)   bands (ev):

   -18.8938 -12.3487  -9.0003  -6.4984   2.0207   5.0368   5.7127   6.0288

     occupation numbers 
     1.0000   1.0000   1.0000   1.0000   0.0000   0.0000   0.0000   0.0000

          k = 0.3000 0.2885 0.0369 ( 10232 PWs)   bands (ev):

   -18.8938 -12.3487  -9.0003  -6.4984   2.0207   5.0382   5.6835   6.1009

     occupation numbers 
     1.0000   1.0000   1.0000   1.0000   0.0000   0.0000   0.0000   0.0000

          k = 0.3000 0.2885 0.0492 ( 10234 PWs)   bands (ev):

   -18.8938 -12.3487  -9.0003  -6.4984   2.0207   5.0393   5.6644   6.1712

     occupation numbers 
     1.0000   1.0000   1.0000   1.0000   0.0000   0.0000   0.0000   0.0000

          k = 0.3000 0.2885-0.0615 ( 10234 PWs)   bands (ev):

   -18.8938 -12.3487  -9.0003  -6.4984   2.0207   5.0398   5.6577   6.2272

     occupation numbers 
     1.0000   1.0000   1.0000   1.0000   0.0000   0.0000   0.0000   0.0000

          k = 0.3000 0.4038 0.0000 ( 10253 PWs)   bands (ev):

   -17.5663 -13.3050 -10.9237  -5.0533   0.3881   6.9368   7.5705   7.9152

     occupation numbers 
     1.0000   1.0000   1.0000   1.0000   0.0000   0.0000   0.0000   0.0000

          k = 0.3000 0.4038 0.0123 ( 10249 PWs)   bands (ev):

   -17.5663 -13.3050 -10.9237  -5.0533   0.3881   6.9371   7.5653   7.9276

     occupation numbers 
     1.0000   1.0000   1.0000   1.0000   0.0000   0.0000   0.0000   0.0000

          k = 0.3000 0.4038 0.0246 ( 10254 PWs)   bands (ev):

   -17.5663 -13.3050 -10.9237  -5.0533   0.3881   6.9380   7.5522   7.9591

     occupation numbers 
     1.0000   1.0000   1.0000   1.0000   0.0000   0.0000   0.0000   0.0000

          k = 0.3000 0.4038 0.0369 ( 10249 PWs)   bands (ev):

   -17.5663 -13.3050 -10.9237  -5.0533   0.3881   6.9391   7.5377   8.0009

     occupation numbers 
     1.0000   1.0000   1.0000   1.0000   0.0000   0.0000   0.0000   0.0000

          k = 0.3000 0.4038 0.0492 ( 10246 PWs)   bands (ev):

   -17.5663 -13.3050 -10.9237  -5.0533   0.3881   6.9400   7.5270   8.0375

     occupation numbers 
     1.0000   1.0000   1.0000   1.0000   0.0000   0.0000   0.0000   0.0000

          k = 0.3000 0.4038-0.0615 ( 10254 PWs)   bands (ev):

   -17.5663 -13.3050 -10.9237  -5.0533   0.3881   6.9402   7.5231   8.0533

     occupation numbers 
     1.0000   1.0000   1.0000   1.0000   0.0000   0.0000   0.0000   0.0000

          k = 0.3000 0.5192 0.0000 ( 10259 PWs)   bands (ev):

   -15.9330 -14.2316 -12.5677  -3.3643  -1.3093   8.4393   9.3388  10.5300

     occupation numbers 
     1.0000   1.0000   1.0000   1.0000   0.0000   0.0000   0.0000   0.0000

          k = 0.3000 0.5192 0.0123 ( 10257 PWs)   bands (ev):

   -15.9330 -14.2316 -12.5677  -3.3643  -1.3093   8.4394   9.3390  10.5058

     occupation numbers 
     1.0000   1.0000   1.0000   1.0000   0.0000   0.0000   0.0000   0.0000

          k = 0.3000 0.5192 0.0246 ( 10248 PWs)   bands (ev):

   -15.9330 -14.2316 -12.5677  -3.3643  -1.3093   8.4393   9.3392  10.4654

     occupation numbers 
     1.0000   1.0000   1.0000   1.0000   0.0000   0.0000   0.0000   0.0000

          k = 0.3000 0.5192 0.0369 ( 10240 PWs)   bands (ev):

   -15.9330 -14.2316 -12.5677  -3.3643  -1.3093   8.4394   9.3399  10.4352

     occupation numbers 
     1.0000   1.0000   1.0000   1.0000   0.0000   0.0000   0.0000   0.0000

          k = 0.3000 0.5192 0.0492 ( 10235 PWs)   bands (ev):

   -15.9330 -14.2316 -12.5677  -3.3643  -1.3093   8.4393   9.3400  10.4145

     occupation numbers 
     1.0000   1.0000   1.0000   1.0000   0.0000   0.0000   0.0000   0.0000

          k = 0.3000 0.5192-0.0615 ( 10232 PWs)   bands (ev):

   -15.9330 -14.2316 -12.5677  -3.3643  -1.3093   8.4393   9.3403  10.4102

     occupation numbers 
     1.0000   1.0000   1.0000   1.0000   0.0000   0.0000   0.0000   0.0000

          k = 0.3000-0.0577 0.0000 ( 10216 PWs)   bands (ev):

   -20.2688  -9.8369  -8.0681  -8.0489   3.1157   3.8035   3.9681   4.6408

     occupation numbers 
     1.0000   1.0000   1.0000   1.0000   0.0000   0.0000   0.0000   0.0000

          k = 0.3000-0.0577 0.0123 ( 10216 PWs)   bands (ev):

   -20.2688  -9.8369  -8.0681  -8.0489   3.1163   3.7842   3.9972   4.6404

     occupation numbers 
     1.0000   1.0000   1.0000   1.0000   0.0000   0.0000   0.0000   0.0000

          k = 0.3000-0.0577 0.0246 ( 10210 PWs)   bands (ev):

   -20.2688  -9.8369  -8.0681  -8.0489   3.1178   3.7486   4.0616   4.6399

     occupation numbers 
     1.0000   1.0000   1.0000   1.0000   0.0000   0.0000   0.0000   0.0000

          k = 0.3000-0.0577 0.0369 ( 10209 PWs)   bands (ev):

   -20.2688  -9.8369  -8.0681  -8.0489   3.1197   3.7169   4.1376   4.6250

     occupation numbers 
     1.0000   1.0000   1.0000   1.0000   0.0000   0.0000   0.0000   0.0000

          k = 0.3000-0.0577 0.0492 ( 10208 PWs)   bands (ev):

   -20.2688  -9.8369  -8.0681  -8.0489   3.1213   3.6962   4.2088   4.5822

     occupation numbers 
     1.0000   1.0000   1.0000   1.0000   0.0000   0.0000   0.0000   0.0000

          k = 0.3000-0.0577-0.0615 ( 10208 PWs)   bands (ev):

   -20.2688  -9.8369  -8.0681  -8.0489   3.1219   3.6891   4.2435   4.6640

     occupation numbers 
     1.0000   1.0000   1.0000   1.0000   0.0000   0.0000   0.0000   0.0000

          k = 0.4000 0.2308 0.0000 ( 10228 PWs)   bands (ev):

   -18.2196 -13.7072  -8.5655  -5.8290   0.8499   5.2618   6.0207   6.7489

     occupation numbers 
     1.0000   1.0000   1.0000   1.0000   0.0000   0.0000   0.0000   0.0000

          k = 0.4000 0.2308 0.0123 ( 10227 PWs)   bands (ev):

   -18.2196 -13.7072  -8.5655  -5.8290   0.8499   5.2618   6.0210   6.7328

     occupation numbers 
     1.0000   1.0000   1.0000   1.0000   0.0000   0.0000   0.0000   0.0000

          k = 0.4000 0.2308 0.0246 ( 10229 PWs)   bands (ev):

   -18.2196 -13.7072  -8.5655  -5.8289   0.8499   5.2618   6.0220   6.7026

     occupation numbers 
     1.0000   1.0000   1.0000   1.0000   0.0000   0.0000   0.0000   0.0000

          k = 0.4000 0.2308 0.0369 ( 10229 PWs)   bands (ev):

   -18.2196 -13.7072  -8.5655  -5.8289   0.8499   5.2618   6.0233   6.6733

     occupation numbers 
     1.0000   1.0000   1.0000   1.0000   0.0000   0.0000   0.0000   0.0000

          k = 0.4000 0.2308 0.0492 ( 10227 PWs)   bands (ev):

   -18.2196 -13.7072  -8.5655  -5.8289   0.8499   5.2618   6.0245   6.6545

     occupation numbers 
     1.0000   1.0000   1.0000   1.0000   0.0000   0.0000   0.0000   0.0000

          k = 0.4000 0.2308-0.0615 ( 10222 PWs)   bands (ev):

   -18.2196 -13.7072  -8.5655  -5.8290   0.8499   5.2617   6.0248   6.6486

     occupation numbers 
     1.0000   1.0000   1.0000   1.0000   0.0000   0.0000   0.0000   0.0000

          k = 0.4000 0.3462 0.0000 ( 10233 PWs)   bands (ev):

   -17.1513 -14.7398  -9.4799  -4.8471  -0.2572   6.1968   7.5863   8.3028

     occupation numbers 
     1.0000   1.0000   1.0000   1.0000   0.0000   0.0000   0.0000   0.0000

          k = 0.4000 0.3462 0.0123 ( 10240 PWs)   bands (ev):

   -17.1513 -14.7398  -9.4799  -4.8471  -0.2572   6.1968   7.5865   8.2947

     occupation numbers 
     1.0000   1.0000   1.0000   1.0000   0.0000   0.0000   0.0000   0.0000

          k = 0.4000 0.3462 0.0246 ( 10246 PWs)   bands (ev):

   -17.1513 -14.7398  -9.4799  -4.8471  -0.2572   6.1969   7.5873   8.2757

     occupation numbers 
     1.0000   1.0000   1.0000   1.0000   0.0000   0.0000   0.0000   0.0000

          k = 0.4000 0.3462 0.0369 ( 10241 PWs)   bands (ev):

   -17.1513 -14.7398  -9.4799  -4.8471  -0.2572   6.1968   7.5882   8.2569

     occupation numbers 
     1.0000   1.0000   1.0000   1.0000   0.0000   0.0000   0.0000   0.0000

          k = 0.4000 0.3462 0.0492 ( 10236 PWs)   bands (ev):

   -17.1513 -14.7398  -9.4799  -4.8471  -0.2572   6.1968   7.5892   8.2425

     occupation numbers 
     1.0000   1.0000   1.0000   1.0000   0.0000   0.0000   0.0000   0.0000

          k = 0.4000 0.3462-0.0615 ( 10234 PWs)   bands (ev):

   -17.1513 -14.7398  -9.4799  -4.8471  -0.2572   6.1970   7.5893   8.2379

     occupation numbers 
     1.0000   1.0000   1.0000   1.0000   0.0000   0.0000   0.0000   0.0000

          k = 0.4000 0.4615 0.0000 ( 10229 PWs)   bands (ev):

   -16.0380 -15.0725 -11.2271  -3.8359  -1.0262   8.5896   9.0283   9.5802

     occupation numbers 
     1.0000   1.0000   1.0000   1.0000   0.0000   0.0000   0.0000   0.0000

          k = 0.4000 0.4615 0.0123 ( 10240 PWs)   bands (ev):

   -16.0380 -15.0725 -11.2271  -3.8359  -1.0262   8.5896   9.0281   9.5803

     occupation numbers 
     1.0000   1.0000   1.0000   1.0000   0.0000   0.0000   0.0000   0.0000

          k = 0.4000 0.4615 0.0246 ( 10255 PWs)   bands (ev):

   -16.0380 -15.0725 -11.2271  -3.8359  -1.0262   8.5896   9.0285   9.5803

     occupation numbers 
     1.0000   1.0000   1.0000   1.0000   0.0000   0.0000   0.0000   0.0000

          k = 0.4000 0.4615 0.0369 ( 10245 PWs)   bands (ev):

   -16.0380 -15.0725 -11.2271  -3.8359  -1.0262   8.5896   9.0281   9.5808

     occupation numbers 
     1.0000   1.0000   1.0000   1.0000   0.0000   0.0000   0.0000   0.0000

          k = 0.4000 0.4615 0.0492 ( 10240 PWs)   bands (ev):

   -16.0380 -15.0725 -11.2271  -3.8359  -1.0262   8.5895   9.0280   9.5812

     occupation numbers 
     1.0000   1.0000   1.0000   1.0000   0.0000   0.0000   0.0000   0.0000

          k = 0.4000 0.4615-0.0615 ( 10234 PWs)   bands (ev):

   -16.0380 -15.0725 -11.2271  -3.8359  -1.0262   8.5895   9.0281   9.5808

     occupation numbers 
     1.0000   1.0000   1.0000   1.0000   0.0000   0.0000   0.0000   0.0000

          k = 0.4000 0.5769 0.0000 ( 10263 PWs)   bands (ev):

   -15.9239 -14.2451 -12.5631  -3.3533  -1.3206   8.4422   9.3499  10.5423

     occupation numbers 
     1.0000   1.0000   1.0000   1.0000   0.0000   0.0000   0.0000   0.0000

          k = 0.4000 0.5769 0.0123 ( 10254 PWs)   bands (ev):

   -15.9239 -14.2451 -12.5631  -3.3533  -1.3206   8.4422   9.3501  10.5143

     occupation numbers 
     1.0000   1.0000   1.0000   1.0000   0.0000   0.0000   0.0000   0.0000

          k = 0.4000 0.5769 0.0246 ( 10244 PWs)   bands (ev):

   -15.9239 -14.2451 -12.5631  -3.3533  -1.3206   8.4421   9.3505  10.7407

     occupation numbers 
     1.0000   1.0000   1.0000   1.0000   0.0000   0.0000   0.0000   0.0000

          k = 0.4000 0.5769 0.0369 ( 10234 PWs)   bands (ev):

   -15.9239 -14.2451 -12.5631  -3.3533  -1.3206   8.4425   9.3510  10.4445

     occupation numbers 
     1.0000   1.0000   1.0000   1.0000   0.0000   0.0000   0.0000   0.0000

          k = 0.4000 0.5769 0.0492 ( 10232 PWs)   bands (ev):

   -15.9239 -14.2451 -12.5631  -3.3533  -1.3206   8.4421   9.3511  10.4239

     occupation numbers 
     1.0000   1.0000   1.0000   1.0000   0.0000   0.0000   0.0000   0.0000

          k = 0.4000 0.5769-0.0615 ( 10220 PWs)   bands (ev):

   -15.9239 -14.2451 -12.5631  -3.3533  -1.3206   8.4421   9.3513  10.4173

     occupation numbers 
     1.0000   1.0000   1.0000   1.0000   0.0000   0.0000   0.0000   0.0000

          k = 0.4000-0.1154 0.0000 ( 10228 PWs)   bands (ev):

   -18.8920 -12.3538  -8.9959  -6.4956   2.0164   5.0379   5.7638   5.9433

     occupation numbers 
     1.0000   1.0000   1.0000   1.0000   0.0000   0.0000   0.0000   0.0000

          k = 0.4000-0.1154 0.0123 ( 10226 PWs)   bands (ev):

   -18.8920 -12.3538  -8.9959  -6.4956   2.0164   5.0384   5.7472   5.9697

     occupation numbers 
     1.0000   1.0000   1.0000   1.0000   0.0000   0.0000   0.0000   0.0000

          k = 0.4000-0.1154 0.0246 ( 10229 PWs)   bands (ev):

   -18.8920 -12.3538  -8.9959  -6.4956   2.0164   5.0395   5.7153   6.0305

     occupation numbers 
     1.0000   1.0000   1.0000   1.0000   0.0000   0.0000   0.0000   0.0000

          k = 0.4000-0.1154 0.0369 ( 10230 PWs)   bands (ev):

   -18.8920 -12.3538  -8.9959  -6.4956   2.0164   5.0410   5.6862   6.1036

     occupation numbers 
     1.0000   1.0000   1.0000   1.0000   0.0000   0.0000   0.0000   0.0000

          k = 0.4000-0.1154 0.0492 ( 10233 PWs)   bands (ev):

   -18.8920 -12.3538  -8.9959  -6.4956   2.0164   5.0422   5.6670   6.1742

     occupation numbers 
     1.0000   1.0000   1.0000   1.0000   0.0000   0.0000   0.0000   0.0000

          k = 0.4000-0.1154-0.0615 ( 10232 PWs)   bands (ev):

   -18.8919 -12.3538  -8.9959  -6.4956   2.0164   5.0426   5.6604   6.2287

     occupation numbers 
     1.0000   1.0000   1.0000   1.0000   0.0000   0.0000   0.0000   0.0000

          k = 0.4000 0.0000 0.0000 ( 10237 PWs)   bands (ev):

   -19.1196 -11.3168  -9.8354  -6.7285   2.5893   4.7226   5.4204   5.6169

     occupation numbers 
     1.0000   1.0000   1.0000   1.0000   0.0000   0.0000   0.0000   0.0000

          k = 0.4000 0.0000 0.0123 ( 10247 PWs)   bands (ev):

   -19.1196 -11.3168  -9.8354  -6.7285   2.5891   4.7231   5.4054   5.6415

     occupation numbers 
     1.0000   1.0000   1.0000   1.0000   0.0000   0.0000   0.0000   0.0000

          k = 0.4000 0.0000 0.0246 ( 10247 PWs)   bands (ev):

   -19.1196 -11.3168  -9.8354  -6.7285   2.5891   4.7245   5.3755   5.6994

     occupation numbers 
     1.0000   1.0000   1.0000   1.0000   0.0000   0.0000   0.0000   0.0000

          k = 0.4000 0.0000 0.0369 ( 10251 PWs)   bands (ev):

   -19.1196 -11.3168  -9.8354  -6.7285   2.5892   4.7260   5.3471   5.7706

     occupation numbers 
     1.0000   1.0000   1.0000   1.0000   0.0000   0.0000   0.0000   0.0000

          k = 0.4000 0.0000 0.0492 ( 10260 PWs)   bands (ev):

   -19.1196 -11.3168  -9.8354  -6.7285   2.5891   4.7272   5.3285   5.8361

     occupation numbers 
     1.0000   1.0000   1.0000   1.0000   0.0000   0.0000   0.0000   0.0000

          k = 0.4000 0.0000-0.0615 ( 10258 PWs)   bands (ev):

   -19.1196 -11.3168  -9.8354  -6.7285   2.5891   4.7277   5.3223   5.8677

     occupation numbers 
     1.0000   1.0000   1.0000   1.0000   0.0000   0.0000   0.0000   0.0000

          k =-0.5000-0.2885 0.0000 ( 10232 PWs)   bands (ev):

   -16.6444 -15.6323  -8.8010  -4.7000  -0.6417   5.1538   8.7726   8.9088

     occupation numbers 
     1.0000   1.0000   1.0000   1.0000   0.0000   0.0000   0.0000   0.0000

          k =-0.5000-0.2885 0.0123 ( 10230 PWs)   bands (ev):

   -16.6444 -15.6323  -8.8010  -4.7000  -0.6417   5.1537   8.7726   8.9091

     occupation numbers 
     1.0000   1.0000   1.0000   1.0000   0.0000   0.0000   0.0000   0.0000

          k =-0.5000-0.2885 0.0246 ( 10226 PWs)   bands (ev):

   -16.6444 -15.6323  -8.8010  -4.7000  -0.6417   5.1538   8.7732   8.9098

     occupation numbers 
     1.0000   1.0000   1.0000   1.0000   0.0000   0.0000   0.0000   0.0000

          k =-0.5000-0.2885 0.0369 ( 10230 PWs)   bands (ev):

   -16.6444 -15.6323  -8.8010  -4.7000  -0.6417   5.1539   8.7736   8.9108

     occupation numbers 
     1.0000   1.0000   1.0000   1.0000   0.0000   0.0000   0.0000   0.0000

          k =-0.5000-0.2885 0.0492 ( 10234 PWs)   bands (ev):

   -16.6444 -15.6323  -8.8010  -4.7000  -0.6417   5.1538   8.7741   8.9115

     occupation numbers 
     1.0000   1.0000   1.0000   1.0000   0.0000   0.0000   0.0000   0.0000

          k =-0.5000-0.2885-0.0615 ( 10224 PWs)   bands (ev):

   -16.6444 -15.6323  -8.8010  -4.7000  -0.6417   5.1538   8.7743   8.9118

     occupation numbers 
     1.0000   1.0000   1.0000   1.0000   0.0000   0.0000   0.0000   0.0000

          k =-0.5000-0.1731 0.0000 ( 10235 PWs)   bands (ev):

   -17.1490 -14.7431  -9.4785  -4.8450  -0.2599   6.1968   7.5893   8.3064

     occupation numbers 
     1.0000   1.0000   1.0000   1.0000   0.0000   0.0000   0.0000   0.0000

          k =-0.5000-0.1731 0.0123 ( 10240 PWs)   bands (ev):

   -17.1490 -14.7431  -9.4785  -4.8450  -0.2599   6.1968   7.5896   8.2987

     occupation numbers 
     1.0000   1.0000   1.0000   1.0000   0.0000   0.0000   0.0000   0.0000

          k =-0.5000-0.1731 0.0246 ( 10247 PWs)   bands (ev):

   -17.1490 -14.7431  -9.4785  -4.8450  -0.2599   6.1967   7.5905   8.2798

     occupation numbers 
     1.0000   1.0000   1.0000   1.0000   0.0000   0.0000   0.0000   0.0000

          k =-0.5000-0.1731 0.0369 ( 10243 PWs)   bands (ev):

   -17.1490 -14.7431  -9.4785  -4.8450  -0.2599   6.1967   7.5913   8.2597

     occupation numbers 
     1.0000   1.0000   1.0000   1.0000   0.0000   0.0000   0.0000   0.0000

          k =-0.5000-0.1731 0.0492 ( 10235 PWs)   bands (ev):

   -17.1490 -14.7431  -9.4785  -4.8450  -0.2599   6.1966   7.5921   8.2463

     occupation numbers 
     1.0000   1.0000   1.0000   1.0000   0.0000   0.0000   0.0000   0.0000

          k =-0.5000-0.1731-0.0615 ( 10230 PWs)   bands (ev):

   -17.1490 -14.7431  -9.4785  -4.8450  -0.2599   6.1967   7.5924   8.2411

     occupation numbers 
     1.0000   1.0000   1.0000   1.0000   0.0000   0.0000   0.0000   0.0000

          k =-0.5000-0.0577 0.0000 ( 10251 PWs)   bands (ev):

   -17.5619 -13.3147 -10.9175  -5.0473   0.3806   6.9431   7.5770   7.9213

     occupation numbers 
     1.0000   1.0000   1.0000   1.0000   0.0000   0.0000   0.0000   0.0000

          k =-0.5000-0.0577 0.0123 ( 10248 PWs)   bands (ev):

   -17.5619 -13.3147 -10.9175  -5.0473   0.3806   6.9434   7.5715   7.9335

     occupation numbers 
     1.0000   1.0000   1.0000   1.0000   0.0000   0.0000   0.0000   0.0000

          k =-0.5000-0.0577 0.0246 ( 10256 PWs)   bands (ev):

   -17.5619 -13.3147 -10.9175  -5.0473   0.3806   6.9443   7.5585   7.9650

     occupation numbers 
     1.0000   1.0000   1.0000   1.0000   0.0000   0.0000   0.0000   0.0000

          k =-0.5000-0.0577 0.0369 ( 10250 PWs)   bands (ev):

   -17.5619 -13.3147 -10.9175  -5.0473   0.3806   6.9453   7.5439   8.0064

     occupation numbers 
     1.0000   1.0000   1.0000   1.0000   0.0000   0.0000   0.0000   0.0000

          k =-0.5000-0.0577 0.0492 ( 10248 PWs)   bands (ev):

   -17.5619 -13.3147 -10.9175  -5.0473   0.3806   6.9462   7.5332   8.0446

     occupation numbers 
     1.0000   1.0000   1.0000   1.0000   0.0000   0.0000   0.0000   0.0000

          k =-0.5000-0.0577-0.0615 ( 10252 PWs)   bands (ev):

   -17.5619 -13.3147 -10.9175  -5.0473   0.3806   6.9465   7.5293   8.0600

     occupation numbers 
     1.0000   1.0000   1.0000   1.0000   0.0000   0.0000   0.0000   0.0000

     the Fermi energy is    -1.4902 ev

!    total energy              =     -24.09612656 Ry
     estimated scf accuracy    <       0.00000022 Ry
     smearing contrib. (-TS)   =      -0.00000000 Ry
     internal energy E=F+TS    =     -24.09612656 Ry

     The total energy is F=E-TS. E is the sum of the following terms:
     one-electron contribution =    -224.73763694 Ry
     hartree contribution      =     113.68280222 Ry
     xc contribution           =      -8.58640784 Ry
     ewald contribution        =      95.54511600 Ry

     convergence has been achieved in   5 iterations

     Writing output data file ./tmp/VLAB.save/

     init_run     :      1.63s CPU      1.93s WALL (       1 calls)
     electrons    :     56.25s CPU     59.58s WALL (       1 calls)

     Called by init_run:
     wfcinit      :      1.46s CPU      1.73s WALL (       1 calls)
     wfcinit:wfcr :      1.27s CPU      1.51s WALL (     186 calls)
     potinit      :      0.04s CPU      0.06s WALL (       1 calls)
     hinit0       :      0.09s CPU      0.09s WALL (       1 calls)

     Called by electrons:
     c_bands      :     53.34s CPU     56.42s WALL (       5 calls)
     sum_band     :      2.85s CPU      3.08s WALL (       5 calls)
     v_of_rho     :      0.05s CPU      0.07s WALL (       6 calls)
     v_h          :      0.00s CPU      0.00s WALL (       6 calls)
     v_xc         :      0.05s CPU      0.06s WALL (       6 calls)
     mix_rho      :      0.01s CPU      0.01s WALL (       5 calls)

     Called by c_bands:
     init_us_2    :      0.75s CPU      0.81s WALL (    2046 calls)
     cegterg      :     51.82s CPU     54.83s WALL (     930 calls)

     Called by sum_band:
     sum_band:wei :      0.00s CPU      0.00s WALL (       5 calls)
     sum_band:loo :      2.84s CPU      3.07s WALL (       5 calls)
     sum_band:buf :      0.03s CPU      0.04s WALL (     930 calls)
     sum_band:ini :      0.34s CPU      0.37s WALL (     930 calls)

     Called by *egterg:
     cdiaghg      :      5.56s CPU      5.88s WALL (    7432 calls)
     cegterg:over :      7.24s CPU      7.68s WALL (    6502 calls)
     cegterg:upda :      3.51s CPU      3.68s WALL (    6502 calls)
     cegterg:last :      5.32s CPU      5.58s WALL (    3848 calls)
     cdiaghg:chol :      0.73s CPU      0.78s WALL (    7432 calls)
     cdiaghg:inve :      0.21s CPU      0.22s WALL (    7432 calls)
     cdiaghg:para :      0.63s CPU      0.67s WALL (   14864 calls)
     h_psi        :     28.54s CPU     30.44s WALL (    7618 calls)
     g_psi        :      0.64s CPU      0.67s WALL (    6502 calls)

     Called by h_psi:
     h_psi:calbec :      3.85s CPU      4.11s WALL (    7618 calls)
     vloc_psi     :     22.02s CPU     23.47s WALL (    7618 calls)
     add_vuspsi   :      2.47s CPU      2.65s WALL (    7618 calls)

     General routines
     calbec       :      3.82s CPU      4.09s WALL (    7618 calls)
     fft          :      0.04s CPU      0.05s WALL (      60 calls)
     ffts         :      0.00s CPU      0.00s WALL (       5 calls)
     fftw         :     22.66s CPU     24.18s WALL (   78030 calls)

     Parallel routines
     fft_scatt_xy :      1.70s CPU      1.82s WALL (   78095 calls)
     fft_scatt_yz :     13.48s CPU     14.42s WALL (   78095 calls)

     PWSCF        :     58.33s CPU   1m 2.52s WALL


   This run was terminated on:  16:21:29  22Mar2024            

=------------------------------------------------------------------------------=
   JOB DONE.
=------------------------------------------------------------------------------=
