
     Program PWSCF v.6.7MaX starts on 22Mar2024 at 16:26:55 

     This program is part of the open-source Quantum ESPRESSO suite
     for quantum simulation of materials; please cite
         "P. Giannozzi et al., J. Phys.:Condens. Matter 21 395502 (2009);
         "P. Giannozzi et al., J. Phys.:Condens. Matter 29 465901 (2017);
          URL http://www.quantum-espresso.org", 
     in publications or presentations arising from this work. More details at
     http://www.quantum-espresso.org/quote

     Parallel version (MPI), running on     8 processors

     MPI processes distributed on     1 nodes
     R & G space division:  proc/nbgrp/npool/nimage =       8
     Reading input from graphene.bands.in

     Current dimensions of program PWSCF are:
     Max number of different atomic species (ntypx) = 10
     Max number of k-points (npk) =  40000
     Max angular momentum in pseudopotentials (lmaxx) =  3
     Message from routine input:
     WARNING: "startingwfc" set to random may spoil restart
     Message from routine read_pp_mesh:
     mesh size missing, using the one in header
     Message from routine set_cutoff:
     ecutrho < 4*ecutwfc, are you sure?

     Subspace diagonalization in iterative solution of the eigenvalue problem:
     one sub-group per band group will be used
     scalapack distributed-memory algorithm (size of sub-group:  2*  2 procs)

     Message from routine setup:
     using ibrav=0 with symmetry is DISCOURAGED, use correct ibrav instead

     Parallelization info
     --------------------
     sticks:   dense  smooth     PW     G-vecs:    dense   smooth      PW
     Min          32      32     20                 3584     3584    1680
     Max          34      34     21                 3603     3603    1699
     Sum         265     265    163                28761    28761   13495



     bravais-lattice index     =            0
     lattice parameter (alat)  =       4.6506  a.u.
     unit-cell volume          =     708.4381 (a.u.)^3
     number of atoms/cell      =            2
     number of atomic types    =            1
     number of electrons       =         8.00
     number of Kohn-Sham states=           10
     kinetic-energy cutoff     =      90.0000  Ry
     charge density cutoff     =     180.0000  Ry
     Exchange-correlation= PBE
                           (   1   4   3   4   0   0   0)

     celldm(1)=   4.650616  celldm(2)=   0.000000  celldm(3)=   0.000000
     celldm(4)=   0.000000  celldm(5)=   0.000000  celldm(6)=   0.000000

     crystal axes: (cart. coord. in units of alat)
               a(1) = (   1.000000   0.000000   0.000000 )  
               a(2) = (  -0.500000   0.866667   0.000000 )  
               a(3) = (   0.000000   0.000000   8.126778 )  

     reciprocal axes: (cart. coord. in units 2 pi/alat)
               b(1) = (  1.000000  0.576923 -0.000000 )  
               b(2) = (  0.000000  1.153846  0.000000 )  
               b(3) = (  0.000000 -0.000000  0.123050 )  


     PseudoPot. # 1 for C  read from file:
     ./PSEUDO/C.upf
     MD5 check sum: 34a24e64c0a39f27c6c36b90a16ac686
     Pseudo is Norm-conserving + core correction, Zval =  4.0
     Generated using ONCVPSP code by D. R. Hamann
     Using radial grid of 1248 points,  4 beta functions with: 
                l(1) =   0
                l(2) =   0
                l(3) =   1
                l(4) =   1

     atomic species   valence    mass     pseudopotential
        C              4.00    12.01100     C ( 1.00)

      4 Sym. Ops. (no inversion) found


                                    s                        frac. trans.

      isym =  1     identity                                     

 cryst.   s( 1) = (     1          0          0      )
                  (     0          1          0      )
                  (     0          0          1      )

 cart.    s( 1) = (  1.0000000  0.0000000  0.0000000 )
                  (  0.0000000  1.0000000  0.0000000 )
                  (  0.0000000  0.0000000  1.0000000 )


      isym =  2     180 deg rotation - cart. axis [0,1,0]        

 cryst.   s( 2) = (    -1          0          0      )
                  (     1          1          0      )
                  (     0          0         -1      )

 cart.    s( 2) = ( -1.0000000  0.0000000  0.0000000 )
                  (  0.0000000  1.0000000  0.0000000 )
                  (  0.0000000  0.0000000 -1.0000000 )


      isym =  3     inv. 180 deg rotation - cart. axis [0,0,1]   

 cryst.   s( 3) = (     1          0          0      )
                  (     0          1          0      )
                  (     0          0         -1      )

 cart.    s( 3) = (  1.0000000  0.0000000  0.0000000 )
                  (  0.0000000  1.0000000  0.0000000 )
                  (  0.0000000  0.0000000 -1.0000000 )


      isym =  4     inv. 180 deg rotation - cart. axis [1,0,0]   

 cryst.   s( 4) = (    -1          0          0      )
                  (     1          1          0      )
                  (     0          0          1      )

 cart.    s( 4) = ( -1.0000000  0.0000000  0.0000000 )
                  (  0.0000000  1.0000000  0.0000000 )
                  (  0.0000000  0.0000000  1.0000000 )


   Cartesian axes

     site n.     atom                  positions (alat units)
         1           C   tau(   1) = (   0.5000000   0.2886751   4.0633889  )
         2           C   tau(   2) = (   0.0000000   0.5773503   4.0633889  )

   Crystallographic axes

     site n.     atom                  positions (cryst. coord.)
         1           C   tau(   1) = (  0.6665433  0.3330867  0.5000000  )
         2           C   tau(   2) = (  0.3330867  0.6661734  0.5000000  )

     number of k points=    91  Gaussian smearing, width (Ry)=  0.0020
                       cart. coord. in units 2pi/alat
        k(    1) = (   0.0000000   0.0000000   0.0000000), wk =   0.0219780
        k(    2) = (   0.0111111   0.0192308   0.0000000), wk =   0.0219780
        k(    3) = (   0.0222222   0.0384615   0.0000000), wk =   0.0219780
        k(    4) = (   0.0333333   0.0576923   0.0000000), wk =   0.0219780
        k(    5) = (   0.0444444   0.0769231   0.0000000), wk =   0.0219780
        k(    6) = (   0.0555556   0.0961538   0.0000000), wk =   0.0219780
        k(    7) = (   0.0666667   0.1153846   0.0000000), wk =   0.0219780
        k(    8) = (   0.0777778   0.1346154   0.0000000), wk =   0.0219780
        k(    9) = (   0.0888889   0.1538462   0.0000000), wk =   0.0219780
        k(   10) = (   0.1000000   0.1730769   0.0000000), wk =   0.0219780
        k(   11) = (   0.1111111   0.1923077   0.0000000), wk =   0.0219780
        k(   12) = (   0.1222222   0.2115385   0.0000000), wk =   0.0219780
        k(   13) = (   0.1333333   0.2307692   0.0000000), wk =   0.0219780
        k(   14) = (   0.1444444   0.2500000   0.0000000), wk =   0.0219780
        k(   15) = (   0.1555556   0.2692308   0.0000000), wk =   0.0219780
        k(   16) = (   0.1666667   0.2884615   0.0000000), wk =   0.0219780
        k(   17) = (   0.1777778   0.3076923   0.0000000), wk =   0.0219780
        k(   18) = (   0.1888889   0.3269231   0.0000000), wk =   0.0219780
        k(   19) = (   0.2000000   0.3461538   0.0000000), wk =   0.0219780
        k(   20) = (   0.2111111   0.3653846   0.0000000), wk =   0.0219780
        k(   21) = (   0.2222222   0.3846154   0.0000000), wk =   0.0219780
        k(   22) = (   0.2333333   0.4038462   0.0000000), wk =   0.0219780
        k(   23) = (   0.2444444   0.4230769   0.0000000), wk =   0.0219780
        k(   24) = (   0.2555556   0.4423077   0.0000000), wk =   0.0219780
        k(   25) = (   0.2666667   0.4615385   0.0000000), wk =   0.0219780
        k(   26) = (   0.2777778   0.4807692   0.0000000), wk =   0.0219780
        k(   27) = (   0.2888889   0.5000000   0.0000000), wk =   0.0219780
        k(   28) = (   0.3000000   0.5192308   0.0000000), wk =   0.0219780
        k(   29) = (   0.3111111   0.5384615   0.0000000), wk =   0.0219780
        k(   30) = (   0.3222222   0.5576923   0.0000000), wk =   0.0219780
        k(   31) = (   0.3333333   0.5769231   0.0000000), wk =   0.0219780
        k(   32) = (   0.3388889   0.5673077   0.0000000), wk =   0.0219780
        k(   33) = (   0.3444444   0.5576923   0.0000000), wk =   0.0219780
        k(   34) = (   0.3500000   0.5480769   0.0000000), wk =   0.0219780
        k(   35) = (   0.3555556   0.5384615   0.0000000), wk =   0.0219780
        k(   36) = (   0.3611111   0.5288462   0.0000000), wk =   0.0219780
        k(   37) = (   0.3666667   0.5192308   0.0000000), wk =   0.0219780
        k(   38) = (   0.3722222   0.5096154   0.0000000), wk =   0.0219780
        k(   39) = (   0.3777778   0.5000000   0.0000000), wk =   0.0219780
        k(   40) = (   0.3833333   0.4903846   0.0000000), wk =   0.0219780
        k(   41) = (   0.3888889   0.4807692   0.0000000), wk =   0.0219780
        k(   42) = (   0.3944444   0.4711538   0.0000000), wk =   0.0219780
        k(   43) = (   0.4000000   0.4615385   0.0000000), wk =   0.0219780
        k(   44) = (   0.4055556   0.4519231   0.0000000), wk =   0.0219780
        k(   45) = (   0.4111111   0.4423077   0.0000000), wk =   0.0219780
        k(   46) = (   0.4166667   0.4326923   0.0000000), wk =   0.0219780
        k(   47) = (   0.4222222   0.4230769   0.0000000), wk =   0.0219780
        k(   48) = (   0.4277778   0.4134615   0.0000000), wk =   0.0219780
        k(   49) = (   0.4333333   0.4038462   0.0000000), wk =   0.0219780
        k(   50) = (   0.4388889   0.3942308   0.0000000), wk =   0.0219780
        k(   51) = (   0.4444444   0.3846154   0.0000000), wk =   0.0219780
        k(   52) = (   0.4500000   0.3750000   0.0000000), wk =   0.0219780
        k(   53) = (   0.4555556   0.3653846   0.0000000), wk =   0.0219780
        k(   54) = (   0.4611111   0.3557692   0.0000000), wk =   0.0219780
        k(   55) = (   0.4666667   0.3461538   0.0000000), wk =   0.0219780
        k(   56) = (   0.4722222   0.3365385   0.0000000), wk =   0.0219780
        k(   57) = (   0.4777778   0.3269231   0.0000000), wk =   0.0219780
        k(   58) = (   0.4833333   0.3173077   0.0000000), wk =   0.0219780
        k(   59) = (   0.4888889   0.3076923   0.0000000), wk =   0.0219780
        k(   60) = (   0.4944444   0.2980769   0.0000000), wk =   0.0219780
        k(   61) = (   0.5000000   0.2884615   0.0000000), wk =   0.0219780
        k(   62) = (   0.4833333   0.2788462   0.0000000), wk =   0.0219780
        k(   63) = (   0.4666667   0.2692308   0.0000000), wk =   0.0219780
        k(   64) = (   0.4500000   0.2596154   0.0000000), wk =   0.0219780
        k(   65) = (   0.4333333   0.2500000   0.0000000), wk =   0.0219780
        k(   66) = (   0.4166667   0.2403846   0.0000000), wk =   0.0219780
        k(   67) = (   0.4000000   0.2307692   0.0000000), wk =   0.0219780
        k(   68) = (   0.3833333   0.2211538   0.0000000), wk =   0.0219780
        k(   69) = (   0.3666667   0.2115385   0.0000000), wk =   0.0219780
        k(   70) = (   0.3500000   0.2019231   0.0000000), wk =   0.0219780
        k(   71) = (   0.3333333   0.1923077   0.0000000), wk =   0.0219780
        k(   72) = (   0.3166667   0.1826923   0.0000000), wk =   0.0219780
        k(   73) = (   0.3000000   0.1730769   0.0000000), wk =   0.0219780
        k(   74) = (   0.2833333   0.1634615   0.0000000), wk =   0.0219780
        k(   75) = (   0.2666667   0.1538462   0.0000000), wk =   0.0219780
        k(   76) = (   0.2500000   0.1442308   0.0000000), wk =   0.0219780
        k(   77) = (   0.2333333   0.1346154   0.0000000), wk =   0.0219780
        k(   78) = (   0.2166667   0.1250000   0.0000000), wk =   0.0219780
        k(   79) = (   0.2000000   0.1153846   0.0000000), wk =   0.0219780
        k(   80) = (   0.1833333   0.1057692   0.0000000), wk =   0.0219780
        k(   81) = (   0.1666667   0.0961538   0.0000000), wk =   0.0219780
        k(   82) = (   0.1500000   0.0865385   0.0000000), wk =   0.0219780
        k(   83) = (   0.1333333   0.0769231   0.0000000), wk =   0.0219780
        k(   84) = (   0.1166667   0.0673077   0.0000000), wk =   0.0219780
        k(   85) = (   0.1000000   0.0576923   0.0000000), wk =   0.0219780
        k(   86) = (   0.0833333   0.0480769   0.0000000), wk =   0.0219780
        k(   87) = (   0.0666667   0.0384615   0.0000000), wk =   0.0219780
        k(   88) = (   0.0500000   0.0288462   0.0000000), wk =   0.0219780
        k(   89) = (   0.0333333   0.0192308   0.0000000), wk =   0.0219780
        k(   90) = (   0.0166667   0.0096154   0.0000000), wk =   0.0219780
        k(   91) = (   0.0000000   0.0000000   0.0000000), wk =   0.0219780

                       cryst. coord.
        k(    1) = (   0.0000000   0.0000000   0.0000000), wk =   0.0219780
        k(    2) = (   0.0111111   0.0111111   0.0000000), wk =   0.0219780
        k(    3) = (   0.0222222   0.0222222   0.0000000), wk =   0.0219780
        k(    4) = (   0.0333333   0.0333333   0.0000000), wk =   0.0219780
        k(    5) = (   0.0444444   0.0444444   0.0000000), wk =   0.0219780
        k(    6) = (   0.0555556   0.0555556   0.0000000), wk =   0.0219780
        k(    7) = (   0.0666667   0.0666667   0.0000000), wk =   0.0219780
        k(    8) = (   0.0777778   0.0777778   0.0000000), wk =   0.0219780
        k(    9) = (   0.0888889   0.0888889   0.0000000), wk =   0.0219780
        k(   10) = (   0.1000000   0.1000000   0.0000000), wk =   0.0219780
        k(   11) = (   0.1111111   0.1111111   0.0000000), wk =   0.0219780
        k(   12) = (   0.1222222   0.1222222   0.0000000), wk =   0.0219780
        k(   13) = (   0.1333333   0.1333333   0.0000000), wk =   0.0219780
        k(   14) = (   0.1444444   0.1444444   0.0000000), wk =   0.0219780
        k(   15) = (   0.1555556   0.1555556   0.0000000), wk =   0.0219780
        k(   16) = (   0.1666667   0.1666667   0.0000000), wk =   0.0219780
        k(   17) = (   0.1777778   0.1777778   0.0000000), wk =   0.0219780
        k(   18) = (   0.1888889   0.1888889   0.0000000), wk =   0.0219780
        k(   19) = (   0.2000000   0.2000000   0.0000000), wk =   0.0219780
        k(   20) = (   0.2111111   0.2111111   0.0000000), wk =   0.0219780
        k(   21) = (   0.2222222   0.2222222   0.0000000), wk =   0.0219780
        k(   22) = (   0.2333333   0.2333333   0.0000000), wk =   0.0219780
        k(   23) = (   0.2444444   0.2444444   0.0000000), wk =   0.0219780
        k(   24) = (   0.2555556   0.2555556   0.0000000), wk =   0.0219780
        k(   25) = (   0.2666667   0.2666667   0.0000000), wk =   0.0219780
        k(   26) = (   0.2777778   0.2777778   0.0000000), wk =   0.0219780
        k(   27) = (   0.2888889   0.2888889   0.0000000), wk =   0.0219780
        k(   28) = (   0.3000000   0.3000000   0.0000000), wk =   0.0219780
        k(   29) = (   0.3111111   0.3111111   0.0000000), wk =   0.0219780
        k(   30) = (   0.3222222   0.3222222   0.0000000), wk =   0.0219780
        k(   31) = (   0.3333333   0.3333333   0.0000000), wk =   0.0219780
        k(   32) = (   0.3388889   0.3222222   0.0000000), wk =   0.0219780
        k(   33) = (   0.3444444   0.3111111   0.0000000), wk =   0.0219780
        k(   34) = (   0.3500000   0.3000000   0.0000000), wk =   0.0219780
        k(   35) = (   0.3555556   0.2888889   0.0000000), wk =   0.0219780
        k(   36) = (   0.3611111   0.2777778   0.0000000), wk =   0.0219780
        k(   37) = (   0.3666667   0.2666667   0.0000000), wk =   0.0219780
        k(   38) = (   0.3722222   0.2555556   0.0000000), wk =   0.0219780
        k(   39) = (   0.3777778   0.2444444   0.0000000), wk =   0.0219780
        k(   40) = (   0.3833333   0.2333333   0.0000000), wk =   0.0219780
        k(   41) = (   0.3888889   0.2222222   0.0000000), wk =   0.0219780
        k(   42) = (   0.3944444   0.2111111   0.0000000), wk =   0.0219780
        k(   43) = (   0.4000000   0.2000000   0.0000000), wk =   0.0219780
        k(   44) = (   0.4055556   0.1888889   0.0000000), wk =   0.0219780
        k(   45) = (   0.4111111   0.1777778   0.0000000), wk =   0.0219780
        k(   46) = (   0.4166667   0.1666667   0.0000000), wk =   0.0219780
        k(   47) = (   0.4222222   0.1555556   0.0000000), wk =   0.0219780
        k(   48) = (   0.4277778   0.1444444   0.0000000), wk =   0.0219780
        k(   49) = (   0.4333333   0.1333333   0.0000000), wk =   0.0219780
        k(   50) = (   0.4388889   0.1222222   0.0000000), wk =   0.0219780
        k(   51) = (   0.4444444   0.1111111   0.0000000), wk =   0.0219780
        k(   52) = (   0.4500000   0.1000000   0.0000000), wk =   0.0219780
        k(   53) = (   0.4555556   0.0888889   0.0000000), wk =   0.0219780
        k(   54) = (   0.4611111   0.0777778   0.0000000), wk =   0.0219780
        k(   55) = (   0.4666667   0.0666667   0.0000000), wk =   0.0219780
        k(   56) = (   0.4722222   0.0555556   0.0000000), wk =   0.0219780
        k(   57) = (   0.4777778   0.0444444   0.0000000), wk =   0.0219780
        k(   58) = (   0.4833333   0.0333333   0.0000000), wk =   0.0219780
        k(   59) = (   0.4888889   0.0222222   0.0000000), wk =   0.0219780
        k(   60) = (   0.4944444   0.0111111   0.0000000), wk =   0.0219780
        k(   61) = (   0.5000000   0.0000000   0.0000000), wk =   0.0219780
        k(   62) = (   0.4833333   0.0000000   0.0000000), wk =   0.0219780
        k(   63) = (   0.4666667   0.0000000   0.0000000), wk =   0.0219780
        k(   64) = (   0.4500000   0.0000000   0.0000000), wk =   0.0219780
        k(   65) = (   0.4333333   0.0000000   0.0000000), wk =   0.0219780
        k(   66) = (   0.4166667   0.0000000   0.0000000), wk =   0.0219780
        k(   67) = (   0.4000000   0.0000000   0.0000000), wk =   0.0219780
        k(   68) = (   0.3833333   0.0000000   0.0000000), wk =   0.0219780
        k(   69) = (   0.3666667   0.0000000   0.0000000), wk =   0.0219780
        k(   70) = (   0.3500000   0.0000000   0.0000000), wk =   0.0219780
        k(   71) = (   0.3333333   0.0000000   0.0000000), wk =   0.0219780
        k(   72) = (   0.3166667   0.0000000   0.0000000), wk =   0.0219780
        k(   73) = (   0.3000000   0.0000000   0.0000000), wk =   0.0219780
        k(   74) = (   0.2833333   0.0000000   0.0000000), wk =   0.0219780
        k(   75) = (   0.2666667   0.0000000   0.0000000), wk =   0.0219780
        k(   76) = (   0.2500000   0.0000000   0.0000000), wk =   0.0219780
        k(   77) = (   0.2333333   0.0000000   0.0000000), wk =   0.0219780
        k(   78) = (   0.2166667   0.0000000   0.0000000), wk =   0.0219780
        k(   79) = (   0.2000000   0.0000000   0.0000000), wk =   0.0219780
        k(   80) = (   0.1833333   0.0000000   0.0000000), wk =   0.0219780
        k(   81) = (   0.1666667   0.0000000   0.0000000), wk =   0.0219780
        k(   82) = (   0.1500000   0.0000000   0.0000000), wk =   0.0219780
        k(   83) = (   0.1333333   0.0000000   0.0000000), wk =   0.0219780
        k(   84) = (   0.1166667   0.0000000   0.0000000), wk =   0.0219780
        k(   85) = (   0.1000000   0.0000000   0.0000000), wk =   0.0219780
        k(   86) = (   0.0833333   0.0000000   0.0000000), wk =   0.0219780
        k(   87) = (   0.0666667   0.0000000   0.0000000), wk =   0.0219780
        k(   88) = (   0.0500000   0.0000000   0.0000000), wk =   0.0219780
        k(   89) = (   0.0333333   0.0000000   0.0000000), wk =   0.0219780
        k(   90) = (   0.0166667   0.0000000   0.0000000), wk =   0.0219780
        k(   91) = (   0.0000000   0.0000000   0.0000000), wk =   0.0219780

     Dense  grid:    28761 G-vectors     FFT dimensions: (  20,  20, 162)

     Dynamical RAM for                 wfc:       0.19 MB

     Dynamical RAM for     wfc (w. buffer):       0.19 MB

     Dynamical RAM for           str. fact:       0.05 MB

     Dynamical RAM for           local pot:       0.00 MB

     Dynamical RAM for          nlocal pot:       0.31 MB

     Dynamical RAM for                qrad:       0.31 MB

     Dynamical RAM for          rho,v,vnew:       0.36 MB

     Dynamical RAM for           G-vectors:       0.23 MB

     Dynamical RAM for          h,s,v(r/c):       0.00 MB

     Dynamical RAM for          <psi|beta>:       0.00 MB

     Dynamical RAM for                 psi:       0.39 MB

     Dynamical RAM for                hpsi:       0.39 MB

     Dynamical RAM for      wfcinit/wfcrot:       0.39 MB

     Estimated static dynamical RAM per process >       1.89 MB

     Estimated max dynamical RAM per process >       2.68 MB

     Estimated total dynamical RAM >      21.41 MB

     Atomic positions and unit cell read from directory:
     ./tmp/VLAB.save/


     The potential is recalculated from file :
     ./tmp/VLAB.save/charge-density


     negative rho (up, down):  3.672E-04 0.000E+00
     Starting wfcs are random

     Band Structure Calculation
     Davidson diagonalization with overlap

     Computing kpt #:     1  of    91
     total cpu time spent up to now is        1.0 secs

     Computing kpt #:     2  of    91
     total cpu time spent up to now is        1.4 secs

     Computing kpt #:     3  of    91
     total cpu time spent up to now is        1.9 secs

     Computing kpt #:     4  of    91
     total cpu time spent up to now is        2.4 secs

     Computing kpt #:     5  of    91
     total cpu time spent up to now is        2.8 secs

     Computing kpt #:     6  of    91
     total cpu time spent up to now is        3.3 secs

     Computing kpt #:     7  of    91
     total cpu time spent up to now is        3.8 secs

     Computing kpt #:     8  of    91
     total cpu time spent up to now is        4.3 secs

     Computing kpt #:     9  of    91
     total cpu time spent up to now is        4.9 secs

     Computing kpt #:    10  of    91
     total cpu time spent up to now is        5.4 secs

     Computing kpt #:    11  of    91
     total cpu time spent up to now is        6.1 secs

     Computing kpt #:    12  of    91
     total cpu time spent up to now is        6.7 secs

     Computing kpt #:    13  of    91
     total cpu time spent up to now is        7.3 secs

     Computing kpt #:    14  of    91
     total cpu time spent up to now is        7.9 secs

     Computing kpt #:    15  of    91
     total cpu time spent up to now is        8.5 secs

     Computing kpt #:    16  of    91
     total cpu time spent up to now is        9.0 secs

     Computing kpt #:    17  of    91
     total cpu time spent up to now is        9.5 secs

     Computing kpt #:    18  of    91
     total cpu time spent up to now is        9.9 secs

     Computing kpt #:    19  of    91
     total cpu time spent up to now is       10.3 secs

     Computing kpt #:    20  of    91
     total cpu time spent up to now is       10.7 secs

     Computing kpt #:    21  of    91
     total cpu time spent up to now is       11.1 secs

     Computing kpt #:    22  of    91
     total cpu time spent up to now is       11.5 secs

     Computing kpt #:    23  of    91
     total cpu time spent up to now is       11.9 secs

     Computing kpt #:    24  of    91
     total cpu time spent up to now is       12.3 secs

     Computing kpt #:    25  of    91
     total cpu time spent up to now is       12.7 secs

     Computing kpt #:    26  of    91
     total cpu time spent up to now is       13.3 secs

     Computing kpt #:    27  of    91
     total cpu time spent up to now is       13.8 secs

     Computing kpt #:    28  of    91
     total cpu time spent up to now is       14.3 secs

     Computing kpt #:    29  of    91
     total cpu time spent up to now is       15.0 secs

     Computing kpt #:    30  of    91
     total cpu time spent up to now is       15.6 secs

     Computing kpt #:    31  of    91
     c_bands:  1 eigenvalues not converged
     total cpu time spent up to now is       16.4 secs

     Computing kpt #:    32  of    91
     total cpu time spent up to now is       16.8 secs

     Computing kpt #:    33  of    91
     total cpu time spent up to now is       17.4 secs

     Computing kpt #:    34  of    91
     total cpu time spent up to now is       17.8 secs

     Computing kpt #:    35  of    91
     total cpu time spent up to now is       18.3 secs

     Computing kpt #:    36  of    91
     total cpu time spent up to now is       18.8 secs

     Computing kpt #:    37  of    91
     total cpu time spent up to now is       19.3 secs

     Computing kpt #:    38  of    91
     total cpu time spent up to now is       19.8 secs

     Computing kpt #:    39  of    91
     total cpu time spent up to now is       20.4 secs

     Computing kpt #:    40  of    91
     total cpu time spent up to now is       20.9 secs

     Computing kpt #:    41  of    91
     total cpu time spent up to now is       21.4 secs

     Computing kpt #:    42  of    91
     total cpu time spent up to now is       21.8 secs

     Computing kpt #:    43  of    91
     total cpu time spent up to now is       22.2 secs

     Computing kpt #:    44  of    91
     total cpu time spent up to now is       22.7 secs

     Computing kpt #:    45  of    91
     total cpu time spent up to now is       23.2 secs

     Computing kpt #:    46  of    91
     total cpu time spent up to now is       23.7 secs

     Computing kpt #:    47  of    91
     total cpu time spent up to now is       24.2 secs

     Computing kpt #:    48  of    91
     total cpu time spent up to now is       24.7 secs

     Computing kpt #:    49  of    91
     total cpu time spent up to now is       25.2 secs

     Computing kpt #:    50  of    91
     total cpu time spent up to now is       25.7 secs

     Computing kpt #:    51  of    91
     total cpu time spent up to now is       26.1 secs

     Computing kpt #:    52  of    91
     total cpu time spent up to now is       26.6 secs

     Computing kpt #:    53  of    91
     total cpu time spent up to now is       27.1 secs

     Computing kpt #:    54  of    91
     total cpu time spent up to now is       27.6 secs

     Computing kpt #:    55  of    91
     total cpu time spent up to now is       28.1 secs

     Computing kpt #:    56  of    91
     total cpu time spent up to now is       28.6 secs

     Computing kpt #:    57  of    91
     total cpu time spent up to now is       29.1 secs

     Computing kpt #:    58  of    91
     total cpu time spent up to now is       29.5 secs

     Computing kpt #:    59  of    91
     total cpu time spent up to now is       30.0 secs

     Computing kpt #:    60  of    91
     total cpu time spent up to now is       30.5 secs

     Computing kpt #:    61  of    91
     total cpu time spent up to now is       30.9 secs

     Computing kpt #:    62  of    91
     total cpu time spent up to now is       31.3 secs

     Computing kpt #:    63  of    91
     total cpu time spent up to now is       31.7 secs

     Computing kpt #:    64  of    91
     total cpu time spent up to now is       32.0 secs

     Computing kpt #:    65  of    91
     total cpu time spent up to now is       32.4 secs

     Computing kpt #:    66  of    91
     total cpu time spent up to now is       32.7 secs

     Computing kpt #:    67  of    91
     total cpu time spent up to now is       33.1 secs

     Computing kpt #:    68  of    91
     total cpu time spent up to now is       33.5 secs

     Computing kpt #:    69  of    91
     total cpu time spent up to now is       33.9 secs

     Computing kpt #:    70  of    91
     total cpu time spent up to now is       34.2 secs

     Computing kpt #:    71  of    91
     total cpu time spent up to now is       34.7 secs

     Computing kpt #:    72  of    91
     total cpu time spent up to now is       35.1 secs

     Computing kpt #:    73  of    91
     total cpu time spent up to now is       35.8 secs

     Computing kpt #:    74  of    91
     total cpu time spent up to now is       36.5 secs

     Computing kpt #:    75  of    91
     total cpu time spent up to now is       37.4 secs

     Computing kpt #:    76  of    91
     total cpu time spent up to now is       38.3 secs

     Computing kpt #:    77  of    91
     total cpu time spent up to now is       39.1 secs

     Computing kpt #:    78  of    91
     total cpu time spent up to now is       40.0 secs

     Computing kpt #:    79  of    91
     total cpu time spent up to now is       40.9 secs

     Computing kpt #:    80  of    91
     total cpu time spent up to now is       41.7 secs

     Computing kpt #:    81  of    91
     total cpu time spent up to now is       42.4 secs

     Computing kpt #:    82  of    91
     total cpu time spent up to now is       43.1 secs

     Computing kpt #:    83  of    91
     total cpu time spent up to now is       43.7 secs

     Computing kpt #:    84  of    91
     total cpu time spent up to now is       44.4 secs

     Computing kpt #:    85  of    91
     total cpu time spent up to now is       45.1 secs

     Computing kpt #:    86  of    91
     total cpu time spent up to now is       45.7 secs

     Computing kpt #:    87  of    91
     total cpu time spent up to now is       46.4 secs

     Computing kpt #:    88  of    91
     total cpu time spent up to now is       47.0 secs

     Computing kpt #:    89  of    91
     total cpu time spent up to now is       47.8 secs

     Computing kpt #:    90  of    91
     total cpu time spent up to now is       48.5 secs

     Computing kpt #:    91  of    91
     total cpu time spent up to now is       49.1 secs

     ethr =  1.25E-08,  avg # of iterations = 59.8

     total cpu time spent up to now is       49.1 secs

     End of band structure calculation

          k = 0.0000 0.0000 0.0000 ( 10045 PWs)   bands (ev):

   -21.9093  -9.9917  -5.3932  -5.3804   0.8585   1.5252   1.6599   2.6672
     3.1020   4.7869

          k = 0.0111 0.0192 0.0000 ( 10073 PWs)   bands (ev):

   -21.9006  -9.9812  -5.4224  -5.4072   0.8704   1.5374   1.6721   2.6793
     3.1141   4.7989

          k = 0.0222 0.0385 0.0000 ( 10105 PWs)   bands (ev):

   -21.8743  -9.9496  -5.5283  -5.4674   0.9063   1.5737   1.7087   2.7155
     3.1503   4.8349

          k = 0.0333 0.0577 0.0000 ( 10123 PWs)   bands (ev):

   -21.8305  -9.8971  -5.7017  -5.5638   0.9660   1.6343   1.7697   2.7759
     3.2107   4.8948

          k = 0.0444 0.0769 0.0000 ( 10131 PWs)   bands (ev):

   -21.7692  -9.8236  -5.9335  -5.6965   1.0497   1.7191   1.8551   2.8605
     3.2953   4.9787

          k = 0.0556 0.0962 0.0000 ( 10126 PWs)   bands (ev):

   -21.6905  -9.7293  -6.2145  -5.8635   1.1572   1.8282   1.9649   2.9692
     3.4040   5.0864

          k = 0.0667 0.1154 0.0000 ( 10131 PWs)   bands (ev):

   -21.5943  -9.6143  -6.5357  -6.0624   1.2887   1.9614   2.0990   3.1019
     3.5370   5.2180

          k = 0.0778 0.1346 0.0000 ( 10137 PWs)   bands (ev):

   -21.4808  -9.4788  -6.8884  -6.2904   1.4441   2.1187   2.2576   3.2588
     3.6941   5.3734

          k = 0.0889 0.1538 0.0000 ( 10139 PWs)   bands (ev):

   -21.3501  -9.3229  -7.2648  -6.5446   1.6234   2.3002   2.4406   3.4396
     3.8754   5.5525

          k = 0.1000 0.1731 0.0000 ( 10165 PWs)   bands (ev):

   -21.2021  -9.1470  -7.6584  -6.8218   1.8266   2.5058   2.6480   3.6444
     4.0810   5.7552

          k = 0.1111 0.1923 0.0000 ( 10177 PWs)   bands (ev):

   -21.0370  -8.9514  -8.0635  -7.1186   2.0536   2.7353   2.8798   3.8731
     4.3107   5.9813

          k = 0.1222 0.2115 0.0000 ( 10175 PWs)   bands (ev):

   -20.8550  -8.7363  -8.4754  -7.4320   2.3044   2.9888   3.1360   4.1256
     4.5646   6.0355

          k = 0.1333 0.2308 0.0000 ( 10195 PWs)   bands (ev):

   -20.6561  -8.8904  -8.5021  -7.7587   2.5790   3.2662   3.4166   4.4017
     4.8427   5.5591

          k = 0.1444 0.2500 0.0000 ( 10217 PWs)   bands (ev):

   -20.4405  -9.3053  -8.2495  -8.0959   2.8773   3.5672   3.7216   4.7014
     5.0718   5.1449

          k = 0.1556 0.2692 0.0000 ( 10221 PWs)   bands (ev):

   -20.2085  -9.7176  -8.4405  -7.9789   3.1992   3.8917   4.0510   4.5776
     5.0243   5.4712

          k = 0.1667 0.2885 0.0000 ( 10223 PWs)   bands (ev):

   -19.9602 -10.1250  -8.7900  -7.6909   3.5446   4.0801   4.2394   4.4047
     5.3702   5.8215

          k = 0.1778 0.3077 0.0000 ( 10221 PWs)   bands (ev):

   -19.6959 -10.5260  -9.1420  -7.3865   3.5824   3.9133   4.6100   4.7828
     5.7386   6.1958

          k = 0.1889 0.3269 0.0000 ( 10225 PWs)   bands (ev):

   -19.4159 -10.9191  -9.4940  -7.0664   3.0874   4.3053   5.0029   5.1853
     6.1289   6.5939

          k = 0.2000 0.3462 0.0000 ( 10241 PWs)   bands (ev):

   -19.1207 -11.3030  -9.8440  -6.7318   2.5974   4.7202   5.4173   5.6121
     6.5400   7.0156

          k = 0.2111 0.3654 0.0000 ( 10255 PWs)   bands (ev):

   -18.8106 -11.6768 -10.1901  -6.3838   2.1146   5.1577   5.8518   6.0632
     6.9704   7.4609

          k = 0.2222 0.3846 0.0000 ( 10253 PWs)   bands (ev):

   -18.4864 -12.0398 -10.5301  -6.0240   1.6409   5.6175   6.3040   6.5385
     7.4173   7.9293

          k = 0.2333 0.4038 0.0000 ( 10269 PWs)   bands (ev):

   -18.1487 -12.3911 -10.8625  -5.6541   1.1779   6.0989   6.7694   7.0380
     7.8758   8.4203

          k = 0.2444 0.4231 0.0000 ( 10249 PWs)   bands (ev):

   -17.7984 -12.7303 -11.1852  -5.2762   0.7270   6.6012   7.2393   7.5616
     8.3367   8.9329

          k = 0.2556 0.4423 0.0000 ( 10261 PWs)   bands (ev):

   -17.4370 -13.0568 -11.4963  -4.8925   0.2895   7.1232   7.6936   8.1092
     8.7838   9.4648

          k = 0.2667 0.4615 0.0000 ( 10257 PWs)   bands (ev):

   -17.0662 -13.3704 -11.7934  -4.5059  -0.1336   7.6628   8.0882   8.6806
     9.2006  10.0091

          k = 0.2778 0.4808 0.0000 ( 10249 PWs)   bands (ev):

   -16.6886 -13.6706 -12.0738  -4.1195  -0.5413   8.2169   8.3512   9.2753
     9.6131  10.5287

          k = 0.2889 0.5000 0.0000 ( 10255 PWs)   bands (ev):

   -16.3081 -13.9571 -12.3332  -3.7370  -0.9328   8.4505   8.7798   9.8925
    10.0867  10.7328

          k = 0.3000 0.5192 0.0000 ( 10259 PWs)   bands (ev):

   -15.9311 -14.2298 -12.5656  -3.3625  -1.3074   8.4428   9.3408  10.5292
    10.6347  10.7666

          k = 0.3111 0.5385 0.0000 ( 10241 PWs)   bands (ev):

   -15.5684 -14.4884 -12.7604  -3.0004  -1.6645   8.3968   9.8764  10.7586
    11.1065  11.2340

          k = 0.3222 0.5577 0.0000 ( 10229 PWs)   bands (ev):

   -15.2388 -14.7327 -12.8996  -2.6555  -2.0034   8.3541  10.3323  10.7043
    11.1739  11.8579

          k = 0.3333 0.5769 0.0000 ( 10243 PWs)   bands (ev):

   -14.9767 -14.9583 -12.9538  -2.3363  -2.3196   8.3369  10.5882  10.6093
    11.1766  12.4113

          k = 0.3389 0.5673 0.0000 ( 10247 PWs)   bands (ev):

   -15.0728 -14.8739 -12.9378  -2.4770  -2.1799   8.3419  10.5379  10.6206
    11.1680  12.2388

          k = 0.3444 0.5577 0.0000 ( 10233 PWs)   bands (ev):

   -15.1786 -14.8043 -12.8886  -2.6251  -2.0349   8.3571  10.4651  10.5900
    11.1273  12.0667

          k = 0.3500 0.5481 0.0000 ( 10221 PWs)   bands (ev):

   -15.2809 -14.7632 -12.8061  -2.7685  -1.8973   8.3831  10.3853  10.5220
    11.0386  11.9006

          k = 0.3556 0.5385 0.0000 ( 10221 PWs)   bands (ev):

   -15.3795 -14.7483 -12.6929  -2.9069  -1.7675   8.4201  10.3002  10.4278
    10.9027  11.7405

          k = 0.3611 0.5288 0.0000 ( 10231 PWs)   bands (ev):

   -15.4745 -14.7552 -12.5536  -3.0405  -1.6458   8.4679  10.2114  10.3097
    10.7332  11.5863

          k = 0.3667 0.5192 0.0000 ( 10233 PWs)   bands (ev):

   -15.5658 -14.7789 -12.3937  -3.1690  -1.5324   8.5261  10.1195  10.1621
    10.5516  11.4382

          k = 0.3722 0.5096 0.0000 ( 10230 PWs)   bands (ev):

   -15.6535 -14.8147 -12.2181  -3.2926  -1.4273   8.5941   9.9696  10.0298
    10.3817  11.2960

          k = 0.3778 0.5000 0.0000 ( 10229 PWs)   bands (ev):

   -15.7374 -14.8589 -12.0309  -3.4111  -1.3306   8.6708   9.7368   9.9367
    10.2353  11.1599

          k = 0.3833 0.4904 0.0000 ( 10243 PWs)   bands (ev):

   -15.8177 -14.9085 -11.8356  -3.5245  -1.2422   8.7548   9.4712   9.8449
    10.1087  11.0298

          k = 0.3889 0.4808 0.0000 ( 10241 PWs)   bands (ev):

   -15.8943 -14.9613 -11.6348  -3.6329  -1.1618   8.8443   9.1864   9.7547
     9.9947  10.9057

          k = 0.3944 0.4712 0.0000 ( 10225 PWs)   bands (ev):

   -15.9671 -15.0157 -11.4308  -3.7361  -1.0893   8.8913   8.9373   9.6666
     9.8892  10.7876

          k = 0.4000 0.4615 0.0000 ( 10229 PWs)   bands (ev):

   -16.0363 -15.0705 -11.2252  -3.8341  -1.0243   8.5918   9.0314   9.5811
     9.7902  10.6756

          k = 0.4056 0.4519 0.0000 ( 10235 PWs)   bands (ev):

   -16.1017 -15.1247 -11.0198  -3.9270  -0.9663   8.2919   9.1240   9.4987
     9.6968  10.5696

          k = 0.4111 0.4423 0.0000 ( 10245 PWs)   bands (ev):

   -16.1634 -15.1777 -10.8158  -4.0147  -0.9150   7.9946   9.2121   9.4198
     9.6086  10.4696

          k = 0.4167 0.4327 0.0000 ( 10243 PWs)   bands (ev):

   -16.2214 -15.2288 -10.6147  -4.0971  -0.8699   7.7026   9.2932   9.3446
     9.5255  10.3757

          k = 0.4222 0.4231 0.0000 ( 10244 PWs)   bands (ev):

   -16.2756 -15.2778 -10.4176  -4.1744  -0.8305   7.4180   9.2734   9.3648
     9.4474  10.2878

          k = 0.4278 0.4135 0.0000 ( 10267 PWs)   bands (ev):

   -16.3261 -15.3243 -10.2260  -4.2463  -0.7963   7.1428   9.2064   9.3745
     9.4251  10.2060

          k = 0.4333 0.4038 0.0000 ( 10261 PWs)   bands (ev):

   -16.3729 -15.3681 -10.0409  -4.3130  -0.7669   6.8787   9.1438   9.3067
     9.4732  10.1302

          k = 0.4389 0.3942 0.0000 ( 10253 PWs)   bands (ev):

   -16.4160 -15.4088  -9.8638  -4.3744  -0.7417   6.6276   9.0857   9.2440
     9.5093  10.0605

          k = 0.4444 0.3846 0.0000 ( 10259 PWs)   bands (ev):

   -16.4553 -15.4465  -9.6958  -4.4305  -0.7202   6.3911   9.0324   9.1867
     9.5342   9.9969

          k = 0.4500 0.3750 0.0000 ( 10251 PWs)   bands (ev):

   -16.4909 -15.4808  -9.5384  -4.4813  -0.7022   6.1709   8.9838   9.1346
     9.5496   9.9393

          k = 0.4556 0.3654 0.0000 ( 10257 PWs)   bands (ev):

   -16.5227 -15.5118  -9.3929  -4.5268  -0.6871   5.9686   8.9402   9.0879
     9.5575   9.8877

          k = 0.4611 0.3558 0.0000 ( 10245 PWs)   bands (ev):

   -16.5508 -15.5393  -9.2605  -4.5670  -0.6747   5.7856   8.9015   9.0466
     9.5599   9.8422

          k = 0.4667 0.3462 0.0000 ( 10241 PWs)   bands (ev):

   -16.5752 -15.5633  -9.1426  -4.6018  -0.6645   5.6235   8.8679   9.0107
     9.5585   9.8028

          k = 0.4722 0.3365 0.0000 ( 10219 PWs)   bands (ev):

   -16.5958 -15.5836  -9.0405  -4.6312  -0.6564   5.4838   8.8393   8.9804
     9.5550   9.7694

          k = 0.4778 0.3269 0.0000 ( 10223 PWs)   bands (ev):

   -16.6127 -15.6004  -8.9551  -4.6554  -0.6501   5.3675   8.8159   8.9554
     9.5505   9.7422

          k = 0.4833 0.3173 0.0000 ( 10213 PWs)   bands (ev):

   -16.6258 -15.6134  -8.8876  -4.6741  -0.6454   5.2758   8.7976   8.9361
     9.5461   9.7209

          k = 0.4889 0.3077 0.0000 ( 10216 PWs)   bands (ev):

   -16.6351 -15.6228  -8.8388  -4.6875  -0.6421   5.2097   8.7846   8.9222
     9.5425   9.7058

          k = 0.4944 0.2981 0.0000 ( 10222 PWs)   bands (ev):

   -16.6408 -15.6284  -8.8092  -4.6956  -0.6402   5.1697   8.7768   8.9139
     9.5401   9.6967

          k = 0.5000 0.2885 0.0000 ( 10232 PWs)   bands (ev):

   -16.6426 -15.6302  -8.7994  -4.6983  -0.6396   5.1563   8.7741   8.9111
     9.5393   9.6936

          k = 0.4833 0.2788 0.0000 ( 10226 PWs)   bands (ev):

   -16.7577 -15.5054  -8.7927  -4.7416  -0.5860   5.1596   8.3294   9.0990
     9.3430   9.3832

          k = 0.4667 0.2692 0.0000 ( 10210 PWs)   bands (ev):

   -17.0107 -15.2229  -8.7729  -4.8649  -0.4318   5.1695   7.8370   8.6009
     8.8362   9.7076

          k = 0.4500 0.2596 0.0000 ( 10212 PWs)   bands (ev):

   -17.3070 -14.8776  -8.7400  -5.0522  -0.1934   5.1856   7.3580   8.1148
     8.3337   9.2278

          k = 0.4333 0.2500 0.0000 ( 10224 PWs)   bands (ev):

   -17.6135 -14.5029  -8.6941  -5.2851   0.1104   5.2077   6.8948   7.6436
     7.8492   8.7598

          k = 0.4167 0.2404 0.0000 ( 10222 PWs)   bands (ev):

   -17.9186 -14.1104  -8.6353  -5.5474   0.4632   5.2348   6.4487   7.1884
     7.3830   8.3069

          k = 0.4000 0.2308 0.0000 ( 10228 PWs)   bands (ev):

   -18.2176 -13.7052  -8.5638  -5.8271   0.8520   5.2642   6.0225   6.7496
     6.9350   7.8701

          k = 0.3833 0.2212 0.0000 ( 10212 PWs)   bands (ev):

   -18.5083 -13.2901  -8.4799  -6.1153   1.2672   5.2812   5.6309   6.3279
     6.5055   7.4501

          k = 0.3667 0.2115 0.0000 ( 10226 PWs)   bands (ev):

   -18.7894 -12.8669  -8.3839  -6.4058   1.7016   5.1344   5.4246   5.9235
     6.0949   7.0471

          k = 0.3500 0.2019 0.0000 ( 10222 PWs)   bands (ev):

   -19.0599 -12.4370  -8.2763  -6.6943   2.1496   4.7866   5.4369   5.5368
     5.7066   6.6614

          k = 0.3333 0.1923 0.0000 ( 10208 PWs)   bands (ev):

   -19.3195 -12.0016  -8.1573  -6.9776   2.6061   4.4296   5.1685   5.3107
     5.5052   6.2934

          k = 0.3167 0.1827 0.0000 ( 10212 PWs)   bands (ev):

   -19.5677 -11.5621  -8.0276  -7.2535   3.0663   4.0853   4.8197   4.9621
     5.5512   5.9433

          k = 0.3000 0.1731 0.0000 ( 10216 PWs)   bands (ev):

   -19.8042 -11.1197  -7.8879  -7.5200   3.5219   3.7569   4.4948   4.6249
     5.6026   5.6119

          k = 0.2833 0.1635 0.0000 ( 10224 PWs)   bands (ev):

   -20.0287 -10.6758  -7.7761  -7.7387   3.4453   3.9174   4.2447   4.3050
     5.3009   5.6109

          k = 0.2667 0.1538 0.0000 ( 10202 PWs)   bands (ev):

   -20.2412 -10.2320  -8.0205  -7.5811   3.1510   3.8226   4.0032   4.4857
     5.0212   5.4036

          k = 0.2500 0.1442 0.0000 ( 10188 PWs)   bands (ev):

   -20.4414  -9.7901  -8.2526  -7.4160   2.8742   3.5588   3.7196   4.6559
     5.0106   5.1348

          k = 0.2333 0.1346 0.0000 ( 10174 PWs)   bands (ev):

   -20.6291  -9.3519  -8.4716  -7.2446   2.6149   3.3008   3.4542   4.4303
     4.8758   5.4156

          k = 0.2167 0.1250 0.0000 ( 10166 PWs)   bands (ev):

   -20.8043  -8.9196  -8.6771  -7.0683   2.3734   3.0581   3.2071   4.1927
     4.6327   5.8344

          k = 0.2000 0.1154 0.0000 ( 10156 PWs)   bands (ev):

   -20.9669  -8.8686  -8.4956  -6.8886   2.1495   2.8323   2.9782   3.9690
     4.4069   6.0002

          k = 0.1833 0.1058 0.0000 ( 10142 PWs)   bands (ev):

   -21.1168  -9.0458  -8.0829  -6.7074   1.9435   2.6241   2.7677   3.7620
     4.1988   5.8674

          k = 0.1667 0.0962 0.0000 ( 10131 PWs)   bands (ev):

   -21.2538  -9.2084  -7.6844  -6.5268   1.7553   2.4338   2.5754   3.5726
     4.0086   5.6829

          k = 0.1500 0.0865 0.0000 ( 10120 PWs)   bands (ev):

   -21.3780  -9.3561  -7.3038  -6.3491   1.5849   2.2614   2.4015   3.4009
     3.8364   5.5138

          k = 0.1333 0.0769 0.0000 ( 10110 PWs)   bands (ev):

   -21.4893  -9.4887  -6.9448  -6.1770   1.4325   2.1070   2.2458   3.2471
     3.6823   5.3617

          k = 0.1167 0.0673 0.0000 ( 10116 PWs)   bands (ev):

   -21.5876  -9.6061  -6.6118  -6.0136   1.2980   1.9708   2.1085   3.1113
     3.5463   5.2273

          k = 0.1000 0.0577 0.0000 ( 10106 PWs)   bands (ev):

   -21.6728  -9.7081  -6.3093  -5.8620   1.1814   1.8526   1.9895   2.9935
     3.4284   5.1106

          k = 0.0833 0.0481 0.0000 ( 10116 PWs)   bands (ev):

   -21.7450  -9.7945  -6.0421  -5.7256   1.0827   1.7526   1.8888   2.8939
     3.3287   5.0118

          k = 0.0667 0.0385 0.0000 ( 10117 PWs)   bands (ev):

   -21.8042  -9.8654  -5.8151  -5.6079   1.0020   1.6708   1.8064   2.8123
     3.2471   4.9309

          k = 0.0500 0.0288 0.0000 ( 10101 PWs)   bands (ev):

   -21.8502  -9.9206  -5.6328  -5.5121   0.9392   1.6071   1.7423   2.7488
     3.1836   4.8679

          k = 0.0333 0.0192 0.0000 ( 10101 PWs)   bands (ev):

   -21.8830  -9.9601  -5.4995  -5.4411   0.8943   1.5616   1.6965   2.7035
     3.1383   4.8229

          k = 0.0167 0.0096 0.0000 ( 10068 PWs)   bands (ev):

   -21.9028  -9.9838  -5.4189  -5.3967   0.8674   1.5343   1.6691   2.6763
     3.1111   4.7959

          k = 0.0000 0.0000 0.0000 ( 10045 PWs)   bands (ev):

   -21.9093  -9.9917  -5.3932  -5.3804   0.8585   1.5252   1.6599   2.6672
     3.1020   4.7869

     Writing output data file ./tmp/VLAB.save/

     init_run     :      0.29s CPU      0.29s WALL (       1 calls)
     electrons    :     46.33s CPU     48.64s WALL (       1 calls)

     Called by init_run:
     wfcinit      :      0.00s CPU      0.00s WALL (       1 calls)
     wfcinit:wfcr :      0.74s CPU      0.81s WALL (      91 calls)
     potinit      :      0.01s CPU      0.01s WALL (       1 calls)
     hinit0       :      0.24s CPU      0.24s WALL (       1 calls)

     Called by electrons:
     c_bands      :     46.31s CPU     48.62s WALL (       1 calls)
     v_of_rho     :      0.01s CPU      0.01s WALL (       1 calls)
     v_h          :      0.00s CPU      0.00s WALL (       1 calls)
     v_xc         :      0.01s CPU      0.01s WALL (       1 calls)

     Called by c_bands:
     init_us_2    :      0.03s CPU      0.03s WALL (      91 calls)
     cegterg      :     45.29s CPU     47.50s WALL (     317 calls)

     Called by sum_band:

     Called by *egterg:
     cdiaghg      :      3.96s CPU      4.15s WALL (    5535 calls)
     cegterg:over :      7.16s CPU      7.55s WALL (    5444 calls)
     cegterg:upda :      3.80s CPU      3.93s WALL (    5444 calls)
     cegterg:last :      6.37s CPU      6.64s WALL (    3603 calls)
     cdiaghg:chol :      0.46s CPU      0.49s WALL (    5535 calls)
     cdiaghg:inve :      0.13s CPU      0.13s WALL (    5535 calls)
     cdiaghg:para :      0.47s CPU      0.49s WALL (   11070 calls)
     h_psi        :     22.47s CPU     23.70s WALL (    5852 calls)
     g_psi        :      0.56s CPU      0.58s WALL (    5444 calls)

     Called by h_psi:
     h_psi:calbec :      2.92s CPU      3.10s WALL (    5852 calls)
     vloc_psi     :     17.56s CPU     18.49s WALL (    5852 calls)
     add_vuspsi   :      1.84s CPU      1.96s WALL (    5852 calls)

     General routines
     calbec       :      2.91s CPU      3.09s WALL (    5852 calls)
     fft          :      0.02s CPU      0.02s WALL (      11 calls)
     fftw         :     16.27s CPU     17.13s WALL (   70694 calls)
     davcio       :      0.03s CPU      0.04s WALL (     182 calls)

     Parallel routines
     fft_scatt_xy :      1.22s CPU      1.28s WALL (   70705 calls)
     fft_scatt_yz :      9.74s CPU     10.26s WALL (   70705 calls)

     PWSCF        :     47.04s CPU     49.62s WALL


   This run was terminated on:  16:27:44  22Mar2024            

=------------------------------------------------------------------------------=
   JOB DONE.
=------------------------------------------------------------------------------=
